 BEGIN_INFO
   Fermi Energy:     0.010636
 END_INFO
 BEGIN_BLOCK_BANDGRID_3D
 band_energies
 BANDGRID_3D_BANDS
 1
  50  50  50
      0.00000000      0.00000000      0.00000000
      0.14302087      0.00000000      0.00000000
      0.00000000      0.14302087      0.00000000
      0.00000000      0.00000000      0.14302087
 BAND:    1
  1.168031E-01  1.165604E-01  1.158408E-01  1.146691E-01  1.130847E-01  1.111387E-01
  1.088909E-01  1.064064E-01  1.037518E-01  1.009923E-01  9.818969E-02  9.539994E-02
  9.267257E-02  9.004996E-02  8.756741E-02  8.525354E-02  8.313090E-02  8.121677E-02
  7.952400E-02  7.806186E-02  7.683679E-02  7.585310E-02  7.511353E-02  7.461974E-02
  7.437264E-02  7.437264E-02  7.461974E-02  7.511353E-02  7.585310E-02  7.683679E-02
  7.806186E-02  7.952400E-02  8.121677E-02  8.313090E-02  8.525354E-02  8.756741E-02
  9.004996E-02  9.267257E-02  9.539994E-02  9.818969E-02  1.009923E-01  1.037518E-01
  1.064064E-01  1.088909E-01  1.111387E-01  1.130847E-01  1.146691E-01  1.158408E-01
  1.165604E-01  1.168031E-01  1.121329E-01  1.118999E-01  1.112091E-01  1.100843E-01
  1.085632E-01  1.066950E-01  1.045371E-01  1.021519E-01  9.960341E-02  9.695431E-02
  9.426374E-02  9.158554E-02  8.896721E-02  8.644946E-02  8.406618E-02  8.184482E-02
  7.980705E-02  7.796945E-02  7.634437E-02  7.494069E-02  7.376460E-02  7.282024E-02
  7.211024E-02  7.163619E-02  7.139897E-02  7.139897E-02  7.163619E-02  7.211024E-02
  7.282024E-02  7.376460E-02  7.494069E-02  7.634437E-02  7.796945E-02  7.980705E-02
  8.184482E-02  8.406618E-02  8.644946E-02  8.896721E-02  9.158554E-02  9.426374E-02
  9.695431E-02  9.960341E-02  1.021519E-01  1.045371E-01  1.066950E-01  1.085632E-01
  1.100843E-01  1.112091E-01  1.118999E-01  1.121329E-01  1.076573E-01  1.074336E-01
  1.067704E-01  1.056905E-01  1.042301E-01  1.024364E-01  1.003647E-01  9.807470E-02
  9.562792E-02  9.308455E-02  9.050136E-02  8.793006E-02  8.541624E-02  8.299898E-02
  8.071082E-02  7.857813E-02  7.662169E-02  7.485744E-02  7.329722E-02  7.194956E-02
  7.082042E-02  6.991375E-02  6.923208E-02  6.877696E-02  6.854921E-02  6.854921E-02
  6.877696E-02  6.923208E-02  6.991375E-02  7.082042E-02  7.194956E-02  7.329722E-02
  7.485744E-02  7.662169E-02  7.857813E-02  8.071082E-02  8.299898E-02  8.541624E-02
  8.793006E-02  9.050136E-02  9.308455E-02  9.562792E-02  9.807470E-02  1.003647E-01
  1.024364E-01  1.042301E-01  1.056905E-01  1.067704E-01  1.074336E-01  1.076573E-01
  1.033763E-01  1.031615E-01  1.025247E-01  1.014877E-01  1.000854E-01  9.836303E-02
  9.637367E-02  9.417476E-02  9.182527E-02  8.938304E-02  8.690258E-02  8.443352E-02
  8.201966E-02  7.969853E-02  7.750136E-02  7.545347E-02  7.357483E-02  7.188073E-02
  7.038255E-02  6.908849E-02  6.800424E-02  6.713362E-02  6.647907E-02  6.604204E-02
  6.582335E-02  6.582335E-02  6.604204E-02  6.647907E-02  6.713362E-02  6.800424E-02
  6.908849E-02  7.038255E-02  7.188073E-02  7.357483E-02  7.545347E-02  7.750136E-02
  7.969853E-02  8.201966E-02  8.443352E-02  8.690258E-02  8.938304E-02  9.182527E-02
  9.417476E-02  9.637367E-02  9.836303E-02  1.000854E-01  1.014877E-01  1.025247E-01
  1.031615E-01  1.033763E-01  9.928992E-02  9.908362E-02  9.847194E-02  9.747594E-02
  9.612904E-02  9.447480E-02  9.256408E-02  9.045208E-02  8.819547E-02  8.584978E-02
  8.346737E-02  8.109591E-02  7.877748E-02  7.654809E-02  7.443777E-02  7.247084E-02
  7.066646E-02  6.903933E-02  6.760037E-02  6.635746E-02  6.531607E-02  6.447987E-02
  6.385119E-02  6.343144E-02  6.322139E-02  6.322139E-02  6.343144E-02  6.385119E-02
  6.447987E-02  6.531607E-02  6.635746E-02  6.760037E-02  6.903933E-02  7.066646E-02
  7.247084E-02  7.443777E-02  7.654809E-02  7.877748E-02  8.109591E-02  8.346737E-02
  8.584978E-02  8.819547E-02  9.045208E-02  9.256408E-02  9.447480E-02  9.612904E-02
  9.747594E-02  9.847194E-02  9.908362E-02  9.928992E-02  9.539810E-02  9.519990E-02
  9.461219E-02  9.365522E-02  9.236112E-02  9.077172E-02  8.893589E-02  8.690668E-02
  8.473852E-02  8.248477E-02  8.019574E-02  7.791724E-02  7.568968E-02  7.354768E-02
  7.152007E-02  6.963024E-02  6.789658E-02  6.633323E-02  6.495067E-02  6.375648E-02
  6.275591E-02  6.195249E-02  6.134845E-02  6.094515E-02  6.074334E-02  6.074334E-02
  6.094515E-02  6.134845E-02  6.195249E-02  6.275591E-02  6.375648E-02  6.495067E-02
  6.633323E-02  6.789658E-02  6.963024E-02  7.152007E-02  7.354768E-02  7.568968E-02
  7.791724E-02  8.019574E-02  8.248477E-02  8.473852E-02  8.690668E-02  8.893589E-02
  9.077172E-02  9.236112E-02  9.365522E-02  9.461219E-02  9.519990E-02  9.539810E-02
  9.170088E-02  9.151035E-02  9.094543E-02  9.002555E-02  8.878160E-02  8.725379E-02
  8.548911E-02  8.353855E-02  8.145442E-02  7.928801E-02  7.708770E-02  7.489750E-02
  7.275627E-02  7.069728E-02  6.874826E-02  6.693167E-02  6.526520E-02  6.376244E-02
  6.243346E-02  6.128555E-02  6.032376E-02  5.955147E-02  5.897084E-02  5.858317E-02
  5.838918E-02  5.838918E-02  5.858317E-02  5.897084E-02  5.955147E-02  6.032376E-02
  6.128555E-02  6.243346E-02  6.376244E-02  6.526520E-02  6.693167E-02  6.874826E-02
  7.069728E-02  7.275627E-02  7.489750E-02  7.708770E-02  7.928801E-02  8.145442E-02
  8.353855E-02  8.548911E-02  8.725379E-02  8.878160E-02  9.002555E-02  9.094543E-02
  9.151035E-02  9.170088E-02  8.819824E-02  8.801500E-02  8.747165E-02  8.658690E-02
  8.539047E-02  8.392102E-02  8.222375E-02  8.034769E-02  7.834316E-02  7.625951E-02
  7.414323E-02  7.203669E-02  6.997725E-02  6.799691E-02  6.612233E-02  6.437513E-02
  6.277231E-02  6.132695E-02  6.004874E-02  5.894467E-02  5.801962E-02  5.727683E-02
  5.671838E-02  5.634551E-02  5.615893E-02  5.615893E-02  5.634551E-02  5.671838E-02
  5.727683E-02  5.801962E-02  5.894467E-02  6.004874E-02  6.132695E-02  6.277231E-02
  6.437513E-02  6.612233E-02  6.799691E-02  6.997725E-02  7.203669E-02  7.414323E-02
  7.625951E-02  7.834316E-02  8.034769E-02  8.222375E-02  8.392102E-02  8.539047E-02
  8.658690E-02  8.747165E-02  8.801500E-02  8.819824E-02  8.489020E-02  8.471383E-02
  8.419086E-02  8.333930E-02  8.218774E-02  8.077340E-02  7.913979E-02  7.733409E-02
  7.540475E-02  7.339925E-02  7.136235E-02  6.933482E-02  6.735262E-02  6.544656E-02
  6.364229E-02  6.196061E-02  6.041792E-02  5.902676E-02  5.779649E-02  5.673384E-02
  5.584348E-02  5.512855E-02  5.459105E-02  5.423217E-02  5.405259E-02  5.405259E-02
  5.423217E-02  5.459105E-02  5.512855E-02  5.584348E-02  5.673384E-02  5.779649E-02
  5.902676E-02  6.041792E-02  6.196061E-02  6.364229E-02  6.544656E-02  6.735262E-02
  6.933482E-02  7.136235E-02  7.339925E-02  7.540475E-02  7.733409E-02  7.913979E-02
  8.077340E-02  8.218774E-02  8.333930E-02  8.419086E-02  8.471383E-02  8.489020E-02
  8.177675E-02  8.160685E-02  8.110306E-02  8.028273E-02  7.917340E-02  7.781094E-02
  7.623724E-02  7.449777E-02  7.263919E-02  7.070724E-02  6.874505E-02  6.679188E-02
  6.488238E-02  6.304622E-02  6.130813E-02  5.968813E-02  5.820202E-02  5.686189E-02
  5.567674E-02  5.465306E-02  5.379536E-02  5.310665E-02  5.258885E-02  5.224314E-02
  5.207014E-02  5.207014E-02  5.224314E-02  5.258885E-02  5.310665E-02  5.379536E-02
  5.465306E-02  5.567674E-02  5.686189E-02  5.820202E-02  5.968813E-02  6.130813E-02
  6.304622E-02  6.488238E-02  6.679188E-02  6.874505E-02  7.070724E-02  7.263919E-02
  7.449777E-02  7.623724E-02  7.781094E-02  7.917340E-02  8.028273E-02  8.110306E-02
  8.160685E-02  8.177675E-02  7.885789E-02  7.869405E-02  7.820824E-02  7.741719E-02
  7.634746E-02  7.503363E-02  7.351610E-02  7.183872E-02  7.004648E-02  6.818349E-02
  6.629133E-02  6.440788E-02  6.256653E-02  6.079591E-02  5.911986E-02  5.755768E-02
  5.612461E-02  5.483231E-02  5.368947E-02  5.270232E-02  5.187524E-02  5.121111E-02
  5.071180E-02  5.037842E-02  5.021160E-02  5.021160E-02  5.037842E-02  5.071180E-02
  5.121111E-02  5.187524E-02  5.270232E-02  5.368947E-02  5.483231E-02  5.612461E-02
  5.755768E-02  5.911986E-02  6.079591E-02  6.256653E-02  6.440788E-02  6.629133E-02
  6.818349E-02  7.004648E-02  7.183872E-02  7.351610E-02  7.503363E-02  7.634746E-02
  7.741719E-02  7.820824E-02  7.869405E-02  7.885789E-02  7.613362E-02  7.597544E-02
  7.550641E-02  7.474269E-02  7.370992E-02  7.244148E-02  7.097637E-02  6.935694E-02
  6.762661E-02  6.582798E-02  6.400119E-02  6.218280E-02  6.040507E-02  5.869562E-02
  5.707747E-02  5.556926E-02  5.418570E-02  5.293804E-02  5.183468E-02  5.088164E-02
  5.008312E-02  4.944194E-02  4.895988E-02  4.863802E-02  4.847696E-02  4.847696E-02
  4.863802E-02  4.895988E-02  4.944194E-02  5.008312E-02  5.088164E-02  5.183468E-02
  5.293804E-02  5.418570E-02  5.556926E-02  5.707747E-02  5.869562E-02  6.040507E-02
  6.218280E-02  6.400119E-02  6.582798E-02  6.762661E-02  6.935694E-02  7.097637E-02
  7.244148E-02  7.370992E-02  7.474269E-02  7.550641E-02  7.597544E-02  7.613362E-02
  7.360394E-02  7.345102E-02  7.299758E-02  7.225923E-02  7.126077E-02  7.003448E-02
  6.861805E-02  6.705243E-02  6.537959E-02  6.364072E-02  6.187463E-02  6.011667E-02
  5.839800E-02  5.674535E-02  5.518097E-02  5.372287E-02  5.238528E-02  5.117908E-02
  5.011238E-02  4.919100E-02  4.841902E-02  4.779914E-02  4.733310E-02  4.702193E-02
  4.686623E-02  4.686623E-02  4.702193E-02  4.733310E-02  4.779914E-02  4.841902E-02
  4.919100E-02  5.011238E-02  5.117908E-02  5.238528E-02  5.372287E-02  5.518097E-02
  5.674535E-02  5.839800E-02  6.011667E-02  6.187463E-02  6.364072E-02  6.537959E-02
  6.705243E-02  6.861805E-02  7.003448E-02  7.126077E-02  7.225923E-02  7.299758E-02
  7.345102E-02  7.360394E-02  7.126885E-02  7.112078E-02  7.068172E-02  6.996680E-02
  6.900002E-02  6.781263E-02  6.644114E-02  6.492518E-02  6.330542E-02  6.162172E-02
  5.991166E-02  5.820946E-02  5.654532E-02  5.494510E-02  5.343035E-02  5.201851E-02
  5.072335E-02  4.955542E-02  4.852256E-02  4.763042E-02  4.688292E-02  4.628271E-02
  4.583145E-02  4.553016E-02  4.537939E-02  4.537939E-02  4.553016E-02  4.583145E-02
  4.628271E-02  4.688292E-02  4.763042E-02  4.852256E-02  4.955542E-02  5.072335E-02
  5.201851E-02  5.343035E-02  5.494510E-02  5.654532E-02  5.820946E-02  5.991166E-02
  6.162172E-02  6.330542E-02  6.492518E-02  6.644114E-02  6.781263E-02  6.900002E-02
  6.996680E-02  7.068172E-02  7.112078E-02  7.126885E-02  6.912835E-02  6.898473E-02
  6.855886E-02  6.786541E-02  6.692766E-02  6.577594E-02  6.444564E-02  6.297521E-02
  6.140410E-02  5.977096E-02  5.811226E-02  5.646119E-02  5.484703E-02  5.329487E-02
  5.182561E-02  5.045618E-02  4.919992E-02  4.806707E-02  4.706523E-02  4.619988E-02
  4.547484E-02  4.489265E-02  4.445494E-02  4.416270E-02  4.401646E-02  4.401646E-02
  4.416270E-02  4.445494E-02  4.489265E-02  4.547484E-02  4.619988E-02  4.706523E-02
  4.806707E-02  4.919992E-02  5.045618E-02  5.182561E-02  5.329487E-02  5.484703E-02
  5.646119E-02  5.811226E-02  5.977096E-02  6.140410E-02  6.297521E-02  6.444564E-02
  6.577594E-02  6.692766E-02  6.786541E-02  6.855886E-02  6.898473E-02  6.912835E-02
  6.718245E-02  6.704286E-02  6.662898E-02  6.595505E-02  6.504370E-02  6.392440E-02
  6.263155E-02  6.120251E-02  5.967562E-02  5.808846E-02  5.647645E-02  5.487185E-02
  5.330313E-02  5.179467E-02  5.036676E-02  4.903588E-02  4.781498E-02  4.671402E-02
  4.574038E-02  4.489939E-02  4.419476E-02  4.362896E-02  4.320357E-02  4.291956E-02
  4.277743E-02  4.277743E-02  4.291956E-02  4.320357E-02  4.362896E-02  4.419476E-02
  4.489939E-02  4.574038E-02  4.671402E-02  4.781498E-02  4.903588E-02  5.036676E-02
  5.179467E-02  5.330313E-02  5.487185E-02  5.647645E-02  5.808846E-02  5.967562E-02
  6.120251E-02  6.263155E-02  6.392440E-02  6.504370E-02  6.595505E-02  6.662898E-02
  6.704286E-02  6.718245E-02  6.543113E-02  6.529519E-02  6.489209E-02  6.423573E-02
  6.334814E-02  6.225801E-02  6.099886E-02  5.960708E-02  5.811999E-02  5.657421E-02
  5.500422E-02  5.344145E-02  5.191362E-02  5.044448E-02  4.905380E-02  4.775761E-02
  4.656854E-02  4.549627E-02  4.454801E-02  4.372895E-02  4.304268E-02  4.249164E-02
  4.207734E-02  4.180073E-02  4.166231E-02  4.166231E-02  4.180073E-02  4.207734E-02
  4.249164E-02  4.304268E-02  4.372895E-02  4.454801E-02  4.549627E-02  4.656854E-02
  4.775761E-02  4.905380E-02  5.044448E-02  5.191362E-02  5.344145E-02  5.500422E-02
  5.657421E-02  5.811999E-02  5.960708E-02  6.099886E-02  6.225801E-02  6.334814E-02
  6.423573E-02  6.489209E-02  6.529519E-02  6.543113E-02  6.387440E-02  6.374169E-02
  6.334819E-02  6.270745E-02  6.184097E-02  6.077678E-02  5.954759E-02  5.818892E-02
  5.673721E-02  5.522820E-02  5.369557E-02  5.216998E-02  5.067850E-02  4.924431E-02
  4.788672E-02  4.662137E-02  4.546059E-02  4.441383E-02  4.348814E-02  4.268856E-02
  4.201862E-02  4.148068E-02  4.107624E-02  4.080621E-02  4.067109E-02  4.067109E-02
  4.080621E-02  4.107624E-02  4.148068E-02  4.201862E-02  4.268856E-02  4.348814E-02
  4.441383E-02  4.546059E-02  4.662137E-02  4.788672E-02  4.924431E-02  5.067850E-02
  5.216998E-02  5.369557E-02  5.522820E-02  5.673721E-02  5.818892E-02  5.954759E-02
  6.077678E-02  6.184097E-02  6.270745E-02  6.334819E-02  6.374169E-02  6.387440E-02
  6.251227E-02  6.238239E-02  6.199728E-02  6.137020E-02  6.052220E-02  5.948070E-02
  5.827773E-02  5.694803E-02  5.552728E-02  5.405045E-02  5.255050E-02  5.105745E-02
  4.959777E-02  4.819417E-02  4.686553E-02  4.562716E-02  4.449113E-02  4.346670E-02
  4.256074E-02  4.177821E-02  4.112257E-02  4.059610E-02  4.020028E-02  3.993601E-02
  3.980377E-02  3.980377E-02  3.993601E-02  4.020028E-02  4.059610E-02  4.112257E-02
  4.177821E-02  4.256074E-02  4.346670E-02  4.449113E-02  4.562716E-02  4.686553E-02
  4.819417E-02  4.959777E-02  5.105745E-02  5.255050E-02  5.405045E-02  5.552728E-02
  5.694803E-02  5.827773E-02  5.948070E-02  6.052220E-02  6.137020E-02  6.199728E-02
  6.238239E-02  6.251227E-02  6.134473E-02  6.121727E-02  6.083935E-02  6.022399E-02
  5.939183E-02  5.836978E-02  5.718927E-02  5.588441E-02  5.449020E-02  5.304095E-02
  5.156901E-02  5.010384E-02  4.867143E-02  4.729404E-02  4.599022E-02  4.477498E-02
  4.366017E-02  4.265487E-02  4.176583E-02  4.099792E-02  4.035452E-02  3.983788E-02
  3.944946E-02  3.919012E-02  3.906035E-02  3.906035E-02  3.919012E-02  3.944946E-02
  3.983788E-02  4.035452E-02  4.099792E-02  4.176583E-02  4.265487E-02  4.366017E-02
  4.477498E-02  4.599022E-02  4.729404E-02  4.867143E-02  5.010384E-02  5.156901E-02
  5.304095E-02  5.449020E-02  5.588441E-02  5.718927E-02  5.836978E-02  5.939183E-02
  6.022399E-02  6.083935E-02  6.121727E-02  6.134473E-02  6.037177E-02  6.024634E-02
  5.987442E-02  5.926881E-02  5.844985E-02  5.744401E-02  5.628222E-02  5.499806E-02
  5.362596E-02  5.219969E-02  5.075110E-02  4.930918E-02  4.789948E-02  4.654394E-02
  4.526079E-02  4.406483E-02  4.296770E-02  4.197835E-02  4.110341E-02  4.034768E-02
  3.971448E-02  3.920604E-02  3.882378E-02  3.856855E-02  3.844084E-02  3.844084E-02
  3.856855E-02  3.882378E-02  3.920604E-02  3.971448E-02  4.034768E-02  4.110341E-02
  4.197835E-02  4.296770E-02  4.406483E-02  4.526079E-02  4.654394E-02  4.789948E-02
  4.930918E-02  5.075110E-02  5.219969E-02  5.362596E-02  5.499806E-02  5.628222E-02
  5.744401E-02  5.844985E-02  5.926881E-02  5.987442E-02  6.024634E-02  6.037177E-02
  5.959341E-02  5.946959E-02  5.910247E-02  5.850466E-02  5.769626E-02  5.670339E-02
  5.555659E-02  5.428898E-02  5.293457E-02  5.152669E-02  5.009678E-02  4.867344E-02
  4.728192E-02  4.594386E-02  4.467725E-02  4.349671E-02  4.241372E-02  4.143713E-02
  4.057347E-02  3.982748E-02  3.920245E-02  3.870056E-02  3.832323E-02  3.807129E-02
  3.794523E-02  3.794523E-02  3.807129E-02  3.832323E-02  3.870056E-02  3.920245E-02
  3.982748E-02  4.057347E-02  4.143713E-02  4.241372E-02  4.349671E-02  4.467725E-02
  4.594386E-02  4.728192E-02  4.867344E-02  5.009678E-02  5.152669E-02  5.293457E-02
  5.428898E-02  5.555659E-02  5.670339E-02  5.769626E-02  5.850466E-02  5.910247E-02
  5.946959E-02  5.959341E-02  5.900964E-02  5.888703E-02  5.852350E-02  5.793156E-02
  5.713107E-02  5.614793E-02  5.501236E-02  5.375717E-02  5.241602E-02  5.102194E-02
  4.960604E-02  4.819664E-02  4.681875E-02  4.549379E-02  4.423960E-02  4.307062E-02
  4.199824E-02  4.103121E-02  4.017602E-02  3.943733E-02  3.881842E-02  3.832145E-02
  3.794782E-02  3.769835E-02  3.757352E-02  3.757352E-02  3.769835E-02  3.794782E-02
  3.832145E-02  3.881842E-02  3.943733E-02  4.017602E-02  4.103121E-02  4.199824E-02
  4.307062E-02  4.423960E-02  4.549379E-02  4.681875E-02  4.819664E-02  4.960604E-02
  5.102194E-02  5.241602E-02  5.375717E-02  5.501236E-02  5.614793E-02  5.713107E-02
  5.793156E-02  5.852350E-02  5.888703E-02  5.900964E-02  5.862046E-02  5.849866E-02
  5.813753E-02  5.754949E-02  5.675428E-02  5.577762E-02  5.464954E-02  5.340263E-02
  5.207033E-02  5.068544E-02  4.927887E-02  4.787877E-02  4.650997E-02  4.519375E-02
  4.394783E-02  4.278656E-02  4.172126E-02  4.076060E-02  3.991105E-02  3.917724E-02
  3.856241E-02  3.806871E-02  3.769754E-02  3.744972E-02  3.732571E-02  3.732571E-02
  3.744972E-02  3.769754E-02  3.806871E-02  3.856241E-02  3.917724E-02  3.991105E-02
  4.076060E-02  4.172126E-02  4.278656E-02  4.394783E-02  4.519375E-02  4.650997E-02
  4.787877E-02  4.927887E-02  5.068544E-02  5.207033E-02  5.340263E-02  5.464954E-02
  5.577762E-02  5.675428E-02  5.754949E-02  5.813753E-02  5.849866E-02  5.862046E-02
  5.842586E-02  5.830447E-02  5.794454E-02  5.735845E-02  5.656589E-02  5.559247E-02
  5.446813E-02  5.322536E-02  5.189748E-02  5.051719E-02  4.911529E-02  4.771984E-02
  4.635558E-02  4.504373E-02  4.380194E-02  4.264453E-02  4.158276E-02  4.062530E-02
  3.977856E-02  3.904719E-02  3.843440E-02  3.794234E-02  3.757241E-02  3.732541E-02
  3.720181E-02  3.720181E-02  3.732541E-02  3.757241E-02  3.794234E-02  3.843440E-02
  3.904719E-02  3.977856E-02  4.062530E-02  4.158276E-02  4.264453E-02  4.380194E-02
  4.504373E-02  4.635558E-02  4.771984E-02  4.911529E-02  5.051719E-02  5.189748E-02
  5.322536E-02  5.446813E-02  5.559247E-02  5.656589E-02  5.735845E-02  5.794454E-02
  5.830447E-02  5.842586E-02  5.842586E-02  5.830447E-02  5.794454E-02  5.735845E-02
  5.656589E-02  5.559247E-02  5.446813E-02  5.322536E-02  5.189748E-02  5.051719E-02
  4.911529E-02  4.771984E-02  4.635558E-02  4.504373E-02  4.380194E-02  4.264453E-02
  4.158276E-02  4.062530E-02  3.977856E-02  3.904719E-02  3.843440E-02  3.794234E-02
  3.757241E-02  3.732541E-02  3.720181E-02  3.720181E-02  3.732541E-02  3.757241E-02
  3.794234E-02  3.843440E-02  3.904719E-02  3.977856E-02  4.062530E-02  4.158276E-02
  4.264453E-02  4.380194E-02  4.504373E-02  4.635558E-02  4.771984E-02  4.911529E-02
  5.051719E-02  5.189748E-02  5.322536E-02  5.446813E-02  5.559247E-02  5.656589E-02
  5.735845E-02  5.794454E-02  5.830447E-02  5.842586E-02  5.862046E-02  5.849866E-02
  5.813753E-02  5.754949E-02  5.675428E-02  5.577762E-02  5.464954E-02  5.340263E-02
  5.207033E-02  5.068544E-02  4.927887E-02  4.787877E-02  4.650997E-02  4.519375E-02
  4.394783E-02  4.278656E-02  4.172126E-02  4.076060E-02  3.991105E-02  3.917724E-02
  3.856241E-02  3.806871E-02  3.769754E-02  3.744972E-02  3.732571E-02  3.732571E-02
  3.744972E-02  3.769754E-02  3.806871E-02  3.856241E-02  3.917724E-02  3.991105E-02
  4.076060E-02  4.172126E-02  4.278656E-02  4.394783E-02  4.519375E-02  4.650997E-02
  4.787877E-02  4.927887E-02  5.068544E-02  5.207033E-02  5.340263E-02  5.464954E-02
  5.577762E-02  5.675428E-02  5.754949E-02  5.813753E-02  5.849866E-02  5.862046E-02
  5.900964E-02  5.888703E-02  5.852350E-02  5.793156E-02  5.713107E-02  5.614793E-02
  5.501236E-02  5.375717E-02  5.241602E-02  5.102194E-02  4.960604E-02  4.819664E-02
  4.681875E-02  4.549379E-02  4.423960E-02  4.307062E-02  4.199824E-02  4.103121E-02
  4.017602E-02  3.943733E-02  3.881842E-02  3.832145E-02  3.794782E-02  3.769835E-02
  3.757352E-02  3.757352E-02  3.769835E-02  3.794782E-02  3.832145E-02  3.881842E-02
  3.943733E-02  4.017602E-02  4.103121E-02  4.199824E-02  4.307062E-02  4.423960E-02
  4.549379E-02  4.681875E-02  4.819664E-02  4.960604E-02  5.102194E-02  5.241602E-02
  5.375717E-02  5.501236E-02  5.614793E-02  5.713107E-02  5.793156E-02  5.852350E-02
  5.888703E-02  5.900964E-02  5.959341E-02  5.946959E-02  5.910247E-02  5.850466E-02
  5.769626E-02  5.670339E-02  5.555659E-02  5.428898E-02  5.293457E-02  5.152669E-02
  5.009678E-02  4.867344E-02  4.728192E-02  4.594386E-02  4.467725E-02  4.349671E-02
  4.241372E-02  4.143713E-02  4.057347E-02  3.982748E-02  3.920245E-02  3.870056E-02
  3.832323E-02  3.807129E-02  3.794523E-02  3.794523E-02  3.807129E-02  3.832323E-02
  3.870056E-02  3.920245E-02  3.982748E-02  4.057347E-02  4.143713E-02  4.241372E-02
  4.349671E-02  4.467725E-02  4.594386E-02  4.728192E-02  4.867344E-02  5.009678E-02
  5.152669E-02  5.293457E-02  5.428898E-02  5.555659E-02  5.670339E-02  5.769626E-02
  5.850466E-02  5.910247E-02  5.946959E-02  5.959341E-02  6.037177E-02  6.024634E-02
  5.987442E-02  5.926881E-02  5.844985E-02  5.744401E-02  5.628222E-02  5.499806E-02
  5.362596E-02  5.219969E-02  5.075110E-02  4.930918E-02  4.789948E-02  4.654394E-02
  4.526079E-02  4.406483E-02  4.296770E-02  4.197835E-02  4.110341E-02  4.034768E-02
  3.971448E-02  3.920604E-02  3.882378E-02  3.856855E-02  3.844084E-02  3.844084E-02
  3.856855E-02  3.882378E-02  3.920604E-02  3.971448E-02  4.034768E-02  4.110341E-02
  4.197835E-02  4.296770E-02  4.406483E-02  4.526079E-02  4.654394E-02  4.789948E-02
  4.930918E-02  5.075110E-02  5.219969E-02  5.362596E-02  5.499806E-02  5.628222E-02
  5.744401E-02  5.844985E-02  5.926881E-02  5.987442E-02  6.024634E-02  6.037177E-02
  6.134473E-02  6.121727E-02  6.083935E-02  6.022399E-02  5.939183E-02  5.836978E-02
  5.718927E-02  5.588441E-02  5.449020E-02  5.304095E-02  5.156901E-02  5.010384E-02
  4.867143E-02  4.729404E-02  4.599022E-02  4.477498E-02  4.366017E-02  4.265487E-02
  4.176583E-02  4.099792E-02  4.035452E-02  3.983788E-02  3.944946E-02  3.919012E-02
  3.906035E-02  3.906035E-02  3.919012E-02  3.944946E-02  3.983788E-02  4.035452E-02
  4.099792E-02  4.176583E-02  4.265487E-02  4.366017E-02  4.477498E-02  4.599022E-02
  4.729404E-02  4.867143E-02  5.010384E-02  5.156901E-02  5.304095E-02  5.449020E-02
  5.588441E-02  5.718927E-02  5.836978E-02  5.939183E-02  6.022399E-02  6.083935E-02
  6.121727E-02  6.134473E-02  6.251227E-02  6.238239E-02  6.199728E-02  6.137020E-02
  6.052220E-02  5.948070E-02  5.827773E-02  5.694803E-02  5.552728E-02  5.405045E-02
  5.255050E-02  5.105745E-02  4.959777E-02  4.819417E-02  4.686553E-02  4.562716E-02
  4.449113E-02  4.346670E-02  4.256074E-02  4.177821E-02  4.112257E-02  4.059610E-02
  4.020028E-02  3.993601E-02  3.980377E-02  3.980377E-02  3.993601E-02  4.020028E-02
  4.059610E-02  4.112257E-02  4.177821E-02  4.256074E-02  4.346670E-02  4.449113E-02
  4.562716E-02  4.686553E-02  4.819417E-02  4.959777E-02  5.105745E-02  5.255050E-02
  5.405045E-02  5.552728E-02  5.694803E-02  5.827773E-02  5.948070E-02  6.052220E-02
  6.137020E-02  6.199728E-02  6.238239E-02  6.251227E-02  6.387440E-02  6.374169E-02
  6.334819E-02  6.270745E-02  6.184097E-02  6.077678E-02  5.954759E-02  5.818892E-02
  5.673721E-02  5.522820E-02  5.369557E-02  5.216998E-02  5.067850E-02  4.924431E-02
  4.788672E-02  4.662137E-02  4.546059E-02  4.441383E-02  4.348814E-02  4.268856E-02
  4.201862E-02  4.148068E-02  4.107624E-02  4.080621E-02  4.067109E-02  4.067109E-02
  4.080621E-02  4.107624E-02  4.148068E-02  4.201862E-02  4.268856E-02  4.348814E-02
  4.441383E-02  4.546059E-02  4.662137E-02  4.788672E-02  4.924431E-02  5.067850E-02
  5.216998E-02  5.369557E-02  5.522820E-02  5.673721E-02  5.818892E-02  5.954759E-02
  6.077678E-02  6.184097E-02  6.270745E-02  6.334819E-02  6.374169E-02  6.387440E-02
  6.543113E-02  6.529519E-02  6.489209E-02  6.423573E-02  6.334814E-02  6.225801E-02
  6.099886E-02  5.960708E-02  5.811999E-02  5.657421E-02  5.500422E-02  5.344145E-02
  5.191362E-02  5.044448E-02  4.905380E-02  4.775761E-02  4.656854E-02  4.549627E-02
  4.454801E-02  4.372895E-02  4.304268E-02  4.249164E-02  4.207734E-02  4.180073E-02
  4.166231E-02  4.166231E-02  4.180073E-02  4.207734E-02  4.249164E-02  4.304268E-02
  4.372895E-02  4.454801E-02  4.549627E-02  4.656854E-02  4.775761E-02  4.905380E-02
  5.044448E-02  5.191362E-02  5.344145E-02  5.500422E-02  5.657421E-02  5.811999E-02
  5.960708E-02  6.099886E-02  6.225801E-02  6.334814E-02  6.423573E-02  6.489209E-02
  6.529519E-02  6.543113E-02  6.718245E-02  6.704286E-02  6.662898E-02  6.595505E-02
  6.504370E-02  6.392440E-02  6.263155E-02  6.120251E-02  5.967562E-02  5.808846E-02
  5.647645E-02  5.487185E-02  5.330313E-02  5.179467E-02  5.036676E-02  4.903588E-02
  4.781498E-02  4.671402E-02  4.574038E-02  4.489939E-02  4.419476E-02  4.362896E-02
  4.320357E-02  4.291956E-02  4.277743E-02  4.277743E-02  4.291956E-02  4.320357E-02
  4.362896E-02  4.419476E-02  4.489939E-02  4.574038E-02  4.671402E-02  4.781498E-02
  4.903588E-02  5.036676E-02  5.179467E-02  5.330313E-02  5.487185E-02  5.647645E-02
  5.808846E-02  5.967562E-02  6.120251E-02  6.263155E-02  6.392440E-02  6.504370E-02
  6.595505E-02  6.662898E-02  6.704286E-02  6.718245E-02  6.912835E-02  6.898473E-02
  6.855886E-02  6.786541E-02  6.692766E-02  6.577594E-02  6.444564E-02  6.297521E-02
  6.140410E-02  5.977096E-02  5.811226E-02  5.646119E-02  5.484703E-02  5.329487E-02
  5.182561E-02  5.045618E-02  4.919992E-02  4.806707E-02  4.706523E-02  4.619988E-02
  4.547484E-02  4.489265E-02  4.445494E-02  4.416270E-02  4.401646E-02  4.401646E-02
  4.416270E-02  4.445494E-02  4.489265E-02  4.547484E-02  4.619988E-02  4.706523E-02
  4.806707E-02  4.919992E-02  5.045618E-02  5.182561E-02  5.329487E-02  5.484703E-02
  5.646119E-02  5.811226E-02  5.977096E-02  6.140410E-02  6.297521E-02  6.444564E-02
  6.577594E-02  6.692766E-02  6.786541E-02  6.855886E-02  6.898473E-02  6.912835E-02
  7.126885E-02  7.112078E-02  7.068172E-02  6.996680E-02  6.900002E-02  6.781263E-02
  6.644114E-02  6.492518E-02  6.330542E-02  6.162172E-02  5.991166E-02  5.820946E-02
  5.654532E-02  5.494510E-02  5.343035E-02  5.201851E-02  5.072335E-02  4.955542E-02
  4.852256E-02  4.763042E-02  4.688292E-02  4.628271E-02  4.583145E-02  4.553016E-02
  4.537939E-02  4.537939E-02  4.553016E-02  4.583145E-02  4.628271E-02  4.688292E-02
  4.763042E-02  4.852256E-02  4.955542E-02  5.072335E-02  5.201851E-02  5.343035E-02
  5.494510E-02  5.654532E-02  5.820946E-02  5.991166E-02  6.162172E-02  6.330542E-02
  6.492518E-02  6.644114E-02  6.781263E-02  6.900002E-02  6.996680E-02  7.068172E-02
  7.112078E-02  7.126885E-02  7.360394E-02  7.345102E-02  7.299758E-02  7.225923E-02
  7.126077E-02  7.003448E-02  6.861805E-02  6.705243E-02  6.537959E-02  6.364072E-02
  6.187463E-02  6.011667E-02  5.839800E-02  5.674535E-02  5.518097E-02  5.372287E-02
  5.238528E-02  5.117908E-02  5.011238E-02  4.919100E-02  4.841902E-02  4.779914E-02
  4.733310E-02  4.702193E-02  4.686623E-02  4.686623E-02  4.702193E-02  4.733310E-02
  4.779914E-02  4.841902E-02  4.919100E-02  5.011238E-02  5.117908E-02  5.238528E-02
  5.372287E-02  5.518097E-02  5.674535E-02  5.839800E-02  6.011667E-02  6.187463E-02
  6.364072E-02  6.537959E-02  6.705243E-02  6.861805E-02  7.003448E-02  7.126077E-02
  7.225923E-02  7.299758E-02  7.345102E-02  7.360394E-02  7.613362E-02  7.597544E-02
  7.550641E-02  7.474269E-02  7.370992E-02  7.244148E-02  7.097637E-02  6.935694E-02
  6.762661E-02  6.582798E-02  6.400119E-02  6.218280E-02  6.040507E-02  5.869562E-02
  5.707747E-02  5.556926E-02  5.418570E-02  5.293804E-02  5.183468E-02  5.088164E-02
  5.008312E-02  4.944194E-02  4.895988E-02  4.863802E-02  4.847696E-02  4.847696E-02
  4.863802E-02  4.895988E-02  4.944194E-02  5.008312E-02  5.088164E-02  5.183468E-02
  5.293804E-02  5.418570E-02  5.556926E-02  5.707747E-02  5.869562E-02  6.040507E-02
  6.218280E-02  6.400119E-02  6.582798E-02  6.762661E-02  6.935694E-02  7.097637E-02
  7.244148E-02  7.370992E-02  7.474269E-02  7.550641E-02  7.597544E-02  7.613362E-02
  7.885789E-02  7.869405E-02  7.820824E-02  7.741719E-02  7.634746E-02  7.503363E-02
  7.351610E-02  7.183872E-02  7.004648E-02  6.818349E-02  6.629133E-02  6.440788E-02
  6.256653E-02  6.079591E-02  5.911986E-02  5.755768E-02  5.612461E-02  5.483231E-02
  5.368947E-02  5.270232E-02  5.187524E-02  5.121111E-02  5.071180E-02  5.037842E-02
  5.021160E-02  5.021160E-02  5.037842E-02  5.071180E-02  5.121111E-02  5.187524E-02
  5.270232E-02  5.368947E-02  5.483231E-02  5.612461E-02  5.755768E-02  5.911986E-02
  6.079591E-02  6.256653E-02  6.440788E-02  6.629133E-02  6.818349E-02  7.004648E-02
  7.183872E-02  7.351610E-02  7.503363E-02  7.634746E-02  7.741719E-02  7.820824E-02
  7.869405E-02  7.885789E-02  8.177675E-02  8.160685E-02  8.110306E-02  8.028273E-02
  7.917340E-02  7.781094E-02  7.623724E-02  7.449777E-02  7.263919E-02  7.070724E-02
  6.874505E-02  6.679188E-02  6.488238E-02  6.304622E-02  6.130813E-02  5.968813E-02
  5.820202E-02  5.686189E-02  5.567674E-02  5.465306E-02  5.379536E-02  5.310665E-02
  5.258885E-02  5.224314E-02  5.207014E-02  5.207014E-02  5.224314E-02  5.258885E-02
  5.310665E-02  5.379536E-02  5.465306E-02  5.567674E-02  5.686189E-02  5.820202E-02
  5.968813E-02  6.130813E-02  6.304622E-02  6.488238E-02  6.679188E-02  6.874505E-02
  7.070724E-02  7.263919E-02  7.449777E-02  7.623724E-02  7.781094E-02  7.917340E-02
  8.028273E-02  8.110306E-02  8.160685E-02  8.177675E-02  8.489020E-02  8.471383E-02
  8.419086E-02  8.333930E-02  8.218774E-02  8.077340E-02  7.913979E-02  7.733409E-02
  7.540475E-02  7.339925E-02  7.136235E-02  6.933482E-02  6.735262E-02  6.544656E-02
  6.364229E-02  6.196061E-02  6.041792E-02  5.902676E-02  5.779649E-02  5.673384E-02
  5.584348E-02  5.512855E-02  5.459105E-02  5.423217E-02  5.405259E-02  5.405259E-02
  5.423217E-02  5.459105E-02  5.512855E-02  5.584348E-02  5.673384E-02  5.779649E-02
  5.902676E-02  6.041792E-02  6.196061E-02  6.364229E-02  6.544656E-02  6.735262E-02
  6.933482E-02  7.136235E-02  7.339925E-02  7.540475E-02  7.733409E-02  7.913979E-02