 BEGIN_INFO
   Fermi Energy:     0.013236
 END_INFO
 BEGIN_BLOCK_BANDGRID_3D
 band_energies
 BANDGRID_3D_BANDS
 1
  50  50  50
      0.00000000      0.00000000      0.00000000
      0.14302087      0.00000000      0.00000000
      0.00000000      0.14302087      0.00000000
      0.00000000      0.00000000      0.14302087
 BAND:    1
  5.544088E-01  6.320384E-01  6.259158E-01  6.199158E-01  6.140383E-01  6.082834E-01
  6.026511E-01  5.971414E-01  5.917542E-01  5.864896E-01  5.813476E-01  5.763282E-01
  5.714313E-01  5.666570E-01  5.620053E-01  5.574762E-01  5.530696E-01  5.487856E-01
  5.446242E-01  5.405854E-01  5.366691E-01  5.328754E-01  5.292043E-01  5.256558E-01
  5.222298E-01  5.189264E-01  5.157456E-01  5.126874E-01  5.097517E-01  5.069386E-01
  5.042481E-01  5.016802E-01  4.992348E-01  4.969120E-01  4.947118E-01  4.926341E-01
  4.906791E-01  4.888466E-01  4.871367E-01  4.855493E-01  4.840845E-01  4.827424E-01
  4.815227E-01  4.804257E-01  4.794512E-01  4.785993E-01  4.778700E-01  4.772633E-01
  4.767791E-01  5.544088E-01  7.635446E-01  8.411743E-01  8.350516E-01  8.290516E-01
  8.231742E-01  8.174193E-01  8.117870E-01  8.062772E-01  8.008901E-01  7.956255E-01
  7.904835E-01  7.854640E-01  7.805672E-01  7.757929E-01  7.711412E-01  7.666120E-01
  7.622055E-01  7.579215E-01  7.537601E-01  7.497212E-01  7.458050E-01  7.420113E-01
  7.383401E-01  7.347916E-01  7.313656E-01  7.280623E-01  7.248814E-01  7.218232E-01
  7.188875E-01  7.160744E-01  7.133839E-01  7.108160E-01  7.083706E-01  7.060478E-01
  7.038476E-01  7.017700E-01  6.998149E-01  6.979824E-01  6.962725E-01  6.946851E-01
  6.932204E-01  6.918782E-01  6.906586E-01  6.895615E-01  6.885870E-01  6.877352E-01
  6.870058E-01  6.863991E-01  6.859149E-01  7.635446E-01  7.476831E-01  8.253127E-01
  8.191901E-01  8.131901E-01  8.073126E-01  8.015578E-01  7.959254E-01  7.904157E-01
  7.850285E-01  7.797640E-01  7.746219E-01  7.696025E-01  7.647056E-01  7.599314E-01
  7.552796E-01  7.507505E-01  7.463439E-01  7.420600E-01  7.378985E-01  7.338597E-01
  7.299434E-01  7.261498E-01  7.224786E-01  7.189301E-01  7.155041E-01  7.122007E-01
  7.090199E-01  7.059617E-01  7.030260E-01  7.002129E-01  6.975224E-01  6.949545E-01
  6.925091E-01  6.901863E-01  6.879861E-01  6.859085E-01  6.839534E-01  6.821209E-01
  6.804110E-01  6.788236E-01  6.773589E-01  6.760167E-01  6.747971E-01  6.737000E-01
  6.727255E-01  6.718736E-01  6.711443E-01  6.705376E-01  6.700534E-01  7.476831E-01
  7.321243E-01  8.097539E-01  8.036313E-01  7.976313E-01  7.917538E-01  7.859989E-01
  7.803666E-01  7.748569E-01  7.694697E-01  7.642052E-01  7.590631E-01  7.540437E-01
  7.491468E-01  7.443726E-01  7.397208E-01  7.351917E-01  7.307851E-01  7.265011E-01
  7.223397E-01  7.183009E-01  7.143846E-01  7.105909E-01  7.069198E-01  7.033713E-01
  6.999453E-01  6.966419E-01  6.934611E-01  6.904029E-01  6.874672E-01  6.846541E-01
  6.819636E-01  6.793957E-01  6.769503E-01  6.746275E-01  6.724273E-01  6.703496E-01
  6.683946E-01  6.665621E-01  6.648522E-01  6.632648E-01  6.618001E-01  6.604579E-01
  6.592382E-01  6.581412E-01  6.571667E-01  6.563148E-01  6.555855E-01  6.549788E-01
  6.544946E-01  7.321243E-01  7.168682E-01  7.944978E-01  7.883752E-01  7.823752E-01
  7.764977E-01  7.707428E-01  7.651105E-01  7.596008E-01  7.542136E-01  7.489490E-01
  7.438070E-01  7.387876E-01  7.338907E-01  7.291164E-01  7.244647E-01  7.199356E-01
  7.155290E-01  7.112450E-01  7.070836E-01  7.030448E-01  6.991285E-01  6.953348E-01
  6.916637E-01  6.881152E-01  6.846892E-01  6.813858E-01  6.782050E-01  6.751468E-01
  6.722111E-01  6.693980E-01  6.667075E-01  6.641396E-01  6.616942E-01  6.593714E-01
  6.571712E-01  6.550935E-01  6.531385E-01  6.513060E-01  6.495961E-01  6.480087E-01
  6.465439E-01  6.452018E-01  6.439821E-01  6.428851E-01  6.419106E-01  6.410587E-01
  6.403294E-01  6.397227E-01  6.392385E-01  7.168682E-01  7.019148E-01  7.795444E-01
  7.734218E-01  7.674218E-01  7.615443E-01  7.557894E-01  7.501571E-01  7.446474E-01
  7.392602E-01  7.339956E-01  7.288536E-01  7.238342E-01  7.189373E-01  7.141630E-01
  7.095113E-01  7.049822E-01  7.005756E-01  6.962916E-01  6.921302E-01  6.880914E-01
  6.841751E-01  6.803814E-01  6.767103E-01  6.731618E-01  6.697358E-01  6.664324E-01
  6.632516E-01  6.601934E-01  6.572577E-01  6.544446E-01  6.517541E-01  6.491861E-01
  6.467408E-01  6.444180E-01  6.422178E-01  6.401401E-01  6.381851E-01  6.363526E-01
  6.346426E-01  6.330553E-01  6.315905E-01  6.302483E-01  6.290287E-01  6.279317E-01
  6.269572E-01  6.261053E-01  6.253760E-01  6.247693E-01  6.242851E-01  7.019148E-01
  6.872640E-01  7.648937E-01  7.587711E-01  7.527711E-01  7.468936E-01  7.411387E-01
  7.355064E-01  7.299967E-01  7.246095E-01  7.193449E-01  7.142029E-01  7.091835E-01
  7.042866E-01  6.995123E-01  6.948606E-01  6.903315E-01  6.859249E-01  6.816409E-01
  6.774795E-01  6.734407E-01  6.695244E-01  6.657307E-01  6.620596E-01  6.585111E-01
  6.550851E-01  6.517817E-01  6.486009E-01  6.455427E-01  6.426070E-01  6.397939E-01
  6.371034E-01  6.345354E-01  6.320901E-01  6.297673E-01  6.275671E-01  6.254894E-01
  6.235344E-01  6.217019E-01  6.199919E-01  6.184046E-01  6.169398E-01  6.155976E-01
  6.143780E-01  6.132810E-01  6.123065E-01  6.114546E-01  6.107253E-01  6.101185E-01
  6.096344E-01  6.872640E-01  6.729160E-01  7.505457E-01  7.444231E-01  7.384231E-01
  7.325456E-01  7.267907E-01  7.211584E-01  7.156487E-01  7.102615E-01  7.049969E-01
  6.998549E-01  6.948355E-01  6.899386E-01  6.851643E-01  6.805126E-01  6.759835E-01
  6.715769E-01  6.672929E-01  6.631315E-01  6.590927E-01  6.551764E-01  6.513827E-01
  6.477116E-01  6.441631E-01  6.407371E-01  6.374337E-01  6.342529E-01  6.311946E-01
  6.282590E-01  6.254459E-01  6.227554E-01  6.201874E-01  6.177421E-01  6.154193E-01
  6.132191E-01  6.111414E-01  6.091863E-01  6.073539E-01  6.056439E-01  6.040566E-01
  6.025918E-01  6.012496E-01  6.000300E-01  5.989330E-01  5.979585E-01  5.971066E-01
  5.963773E-01  5.957705E-01  5.952864E-01  6.729160E-01  6.588707E-01  7.365004E-01
  7.303778E-01  7.243778E-01  7.185003E-01  7.127454E-01  7.071131E-01  7.016034E-01
  6.962162E-01  6.909516E-01  6.858096E-01  6.807902E-01  6.758933E-01  6.711190E-01
  6.664673E-01  6.619382E-01  6.575316E-01  6.532476E-01  6.490862E-01  6.450474E-01
  6.411311E-01  6.373374E-01  6.336663E-01  6.301178E-01  6.266918E-01  6.233884E-01
  6.202076E-01  6.171493E-01  6.142137E-01  6.114006E-01  6.087101E-01  6.061421E-01
  6.036968E-01  6.013740E-01  5.991737E-01  5.970961E-01  5.951410E-01  5.933085E-01
  5.915986E-01  5.900113E-01  5.885465E-01  5.872043E-01  5.859847E-01  5.848877E-01
  5.839132E-01  5.830613E-01  5.823320E-01  5.817252E-01  5.812411E-01  6.588707E-01
  6.451281E-01  7.227578E-01  7.166352E-01  7.106351E-01  7.047577E-01  6.990028E-01
  6.933705E-01  6.878608E-01  6.824736E-01  6.772090E-01  6.720670E-01  6.670476E-01
  6.621507E-01  6.573764E-01  6.527247E-01  6.481956E-01  6.437890E-01  6.395050E-01
  6.353436E-01  6.313048E-01  6.273885E-01  6.235948E-01  6.199237E-01  6.163751E-01
  6.129492E-01  6.096458E-01  6.064650E-01  6.034067E-01  6.004711E-01  5.976580E-01
  5.949675E-01  5.923995E-01  5.899542E-01  5.876314E-01  5.854311E-01  5.833535E-01
  5.813984E-01  5.795659E-01  5.778560E-01  5.762687E-01  5.748039E-01  5.734617E-01
  5.722421E-01  5.711451E-01  5.701706E-01  5.693187E-01  5.685894E-01  5.679826E-01
  5.674985E-01  6.451281E-01  6.316882E-01  7.093179E-01  7.031953E-01  6.971952E-01
  6.913178E-01  6.855629E-01  6.799306E-01  6.744208E-01  6.690337E-01  6.637691E-01
  6.586271E-01  6.536077E-01  6.487108E-01  6.439365E-01  6.392848E-01  6.347557E-01
  6.303491E-01  6.260651E-01  6.219037E-01  6.178648E-01  6.139486E-01  6.101549E-01
  6.064838E-01  6.029352E-01  5.995093E-01  5.962059E-01  5.930251E-01  5.899668E-01
  5.870312E-01  5.842181E-01  5.815276E-01  5.789596E-01  5.765142E-01  5.741915E-01
  5.719912E-01  5.699136E-01  5.679585E-01  5.661260E-01  5.644161E-01  5.628288E-01
  5.613640E-01  5.600218E-01  5.588022E-01  5.577051E-01  5.567307E-01  5.558788E-01
  5.551495E-01  5.545427E-01  5.540585E-01  6.316882E-01  6.185510E-01  6.961807E-01
  6.900581E-01  6.840580E-01  6.781806E-01  6.724257E-01  6.667934E-01  6.612836E-01
  6.558965E-01  6.506319E-01  6.454899E-01  6.404704E-01  6.355736E-01  6.307993E-01
  6.261476E-01  6.216184E-01  6.172119E-01  6.129279E-01  6.087665E-01  6.047276E-01
  6.008114E-01  5.970177E-01  5.933466E-01  5.897980E-01  5.863721E-01  5.830687E-01
  5.798879E-01  5.768296E-01  5.738940E-01  5.710809E-01  5.683904E-01  5.658224E-01
  5.633770E-01  5.610543E-01  5.588540E-01  5.567764E-01  5.548213E-01  5.529888E-01
  5.512789E-01  5.496916E-01  5.482268E-01  5.468846E-01  5.456650E-01  5.445679E-01
  5.435935E-01  5.427416E-01  5.420123E-01  5.414055E-01  5.409213E-01  6.185510E-01
  6.057165E-01  6.833462E-01  6.772236E-01  6.712235E-01  6.653461E-01  6.595912E-01
  6.539589E-01  6.484491E-01  6.430620E-01  6.377974E-01  6.326554E-01  6.276359E-01
  6.227391E-01  6.179648E-01  6.133131E-01  6.087839E-01  6.043774E-01  6.000934E-01
  5.959320E-01  5.918931E-01  5.879769E-01  5.841832E-01  5.805121E-01  5.769635E-01
  5.735376E-01  5.702342E-01  5.670534E-01  5.639951E-01  5.610595E-01  5.582464E-01
  5.555558E-01  5.529879E-01  5.505425E-01  5.482197E-01  5.460195E-01  5.439419E-01
  5.419868E-01  5.401543E-01  5.384444E-01  5.368571E-01  5.353923E-01  5.340501E-01
  5.328305E-01  5.317334E-01  5.307590E-01  5.299071E-01  5.291778E-01  5.285710E-01
  5.280868E-01  6.057165E-01  5.931847E-01  6.708144E-01  6.646918E-01  6.586917E-01
  6.528143E-01  6.470594E-01  6.414271E-01  6.359173E-01  6.305302E-01  6.252656E-01
  6.201236E-01  6.151041E-01  6.102073E-01  6.054330E-01  6.007813E-01  5.962521E-01
  5.918456E-01  5.875616E-01  5.834002E-01  5.793613E-01  5.754451E-01  5.716514E-01
  5.679803E-01  5.644317E-01  5.610058E-01  5.577024E-01  5.545216E-01  5.514633E-01
  5.485277E-01  5.457146E-01  5.430240E-01  5.404561E-01  5.380107E-01  5.356879E-01
  5.334877E-01  5.314101E-01  5.294550E-01  5.276225E-01  5.259126E-01  5.243253E-01
  5.228605E-01  5.215183E-01  5.202987E-01  5.192016E-01  5.182272E-01  5.173753E-01
  5.166460E-01  5.160392E-01  5.155550E-01  5.931847E-01  5.809556E-01  6.585853E-01
  6.524627E-01  6.464626E-01  6.405852E-01  6.348303E-01  6.291980E-01  6.236882E-01
  6.183011E-01  6.130365E-01  6.078945E-01  6.028750E-01  5.979782E-01  5.932039E-01
  5.885522E-01  5.840230E-01  5.796165E-01  5.753325E-01  5.711711E-01  5.671322E-01
  5.632160E-01  5.594223E-01  5.557512E-01  5.522026E-01  5.487767E-01  5.454733E-01
  5.422925E-01  5.392342E-01  5.362985E-01  5.334855E-01  5.307949E-01  5.282270E-01
  5.257816E-01  5.234588E-01  5.212586E-01  5.191810E-01  5.172259E-01  5.153934E-01
  5.136835E-01  5.120962E-01  5.106314E-01  5.092892E-01  5.080696E-01  5.069725E-01
  5.059981E-01  5.051462E-01  5.044168E-01  5.038101E-01  5.033259E-01  5.809556E-01
  5.690292E-01  6.466589E-01  6.405363E-01  6.345362E-01  6.286588E-01  6.229039E-01
  6.172716E-01  6.117618E-01  6.063747E-01  6.011101E-01  5.959681E-01  5.909486E-01
  5.860518E-01  5.812775E-01  5.766258E-01  5.720966E-01  5.676901E-01  5.634061E-01
  5.592447E-01  5.552058E-01  5.512896E-01  5.474959E-01  5.438248E-01  5.402762E-01
  5.368503E-01  5.335469E-01  5.303661E-01  5.273078E-01  5.243721E-01  5.215591E-01
  5.188685E-01  5.163006E-01  5.138552E-01  5.115324E-01  5.093322E-01  5.072546E-01
  5.052995E-01  5.034670E-01  5.017571E-01  5.001698E-01  4.987050E-01  4.973628E-01
  4.961432E-01  4.950461E-01  4.940717E-01  4.932198E-01  4.924904E-01  4.918837E-01
  4.913995E-01  5.690292E-01  5.574055E-01  6.350352E-01  6.289126E-01  6.229125E-01
  6.170351E-01  6.112802E-01  6.056479E-01  6.001381E-01  5.947510E-01  5.894864E-01
  5.843444E-01  5.793249E-01  5.744281E-01  5.696538E-01  5.650021E-01  5.604729E-01
  5.560664E-01  5.517824E-01  5.476210E-01  5.435821E-01  5.396659E-01  5.358722E-01
  5.322011E-01  5.286525E-01  5.252266E-01  5.219232E-01  5.187423E-01  5.156841E-01
  5.127484E-01  5.099354E-01  5.072448E-01  5.046769E-01  5.022315E-01  4.999087E-01
  4.977085E-01  4.956309E-01  4.936758E-01  4.918433E-01  4.901334E-01  4.885461E-01
  4.870813E-01  4.857391E-01  4.845195E-01  4.834224E-01  4.824480E-01  4.815961E-01
  4.808667E-01  4.802600E-01  4.797758E-01  5.574055E-01  5.460845E-01  6.237142E-01
  6.175916E-01  6.115915E-01  6.057141E-01  5.999592E-01  5.943269E-01  5.888171E-01
  5.834300E-01  5.781654E-01  5.730234E-01  5.680039E-01  5.631071E-01  5.583328E-01
  5.536811E-01  5.491519E-01  5.447454E-01  5.404614E-01  5.363000E-01  5.322611E-01
  5.283449E-01  5.245512E-01  5.208801E-01  5.173315E-01  5.139056E-01  5.106022E-01
  5.074213E-01  5.043631E-01  5.014274E-01  4.986144E-01  4.959238E-01  4.933559E-01
  4.909105E-01  4.885877E-01  4.863875E-01  4.843099E-01  4.823548E-01  4.805223E-01
  4.788124E-01  4.772251E-01  4.757603E-01  4.744181E-01  4.731985E-01  4.721014E-01
  4.711270E-01  4.702751E-01  4.695457E-01  4.689390E-01  4.684548E-01  5.460845E-01
  5.350662E-01  6.126959E-01  6.065733E-01  6.005732E-01  5.946958E-01  5.889409E-01
  5.833086E-01  5.777988E-01  5.724117E-01  5.671471E-01  5.620051E-01  5.569856E-01
  5.520888E-01  5.473145E-01  5.426628E-01  5.381336E-01  5.337271E-01  5.294431E-01
  5.252817E-01  5.212428E-01  5.173266E-01  5.135329E-01  5.098618E-01  5.063132E-01
  5.028873E-01  4.995839E-01  4.964030E-01  4.933448E-01  4.904091E-01  4.875960E-01
  4.849055E-01  4.823376E-01  4.798922E-01  4.775694E-01  4.753692E-01  4.732916E-01
  4.713365E-01  4.695040E-01  4.677941E-01  4.662068E-01  4.647420E-01  4.633998E-01
  4.621802E-01  4.610831E-01  4.601087E-01  4.592568E-01  4.585274E-01  4.579207E-01
  4.574365E-01  5.350662E-01  5.243506E-01  6.019803E-01  5.958577E-01  5.898576E-01
  5.839802E-01  5.782253E-01  5.725930E-01  5.670832E-01  5.616961E-01  5.564315E-01
  5.512895E-01  5.462700E-01  5.413732E-01  5.365989E-01  5.319472E-01  5.274180E-01
  5.230115E-01  5.187275E-01  5.145661E-01  5.105272E-01  5.066110E-01  5.028173E-01
  4.991462E-01  4.955976E-01  4.921717E-01  4.888683E-01  4.856874E-01  4.826292E-01
  4.796935E-01  4.768804E-01  4.741899E-01  4.716220E-01  4.691766E-01  4.668538E-01
  4.646536E-01  4.625760E-01  4.606209E-01  4.587884E-01  4.570785E-01  4.554912E-01
  4.540264E-01  4.526842E-01  4.514646E-01  4.503675E-01  4.493931E-01  4.485412E-01
  4.478118E-01  4.472051E-01  4.467209E-01  5.243506E-01  5.139377E-01  5.915674E-01
  5.854448E-01  5.794447E-01  5.735673E-01  5.678124E-01  5.621801E-01  5.566703E-01
  5.512832E-01  5.460186E-01  5.408766E-01  5.358571E-01  5.309603E-01  5.261860E-01
  5.215343E-01  5.170051E-01  5.125986E-01  5.083146E-01  5.041532E-01  5.001143E-01
  4.961981E-01  4.924044E-01  4.887333E-01  4.851847E-01  4.817588E-01  4.784554E-01
  4.752745E-01  4.722163E-01  4.692806E-01  4.664676E-01  4.637770E-01  4.612091E-01
  4.587637E-01  4.564409E-01  4.542407E-01  4.521631E-01  4.502080E-01  4.483755E-01
  4.466656E-01  4.450783E-01  4.436135E-01  4.422713E-01  4.410517E-01  4.399546E-01
  4.389802E-01  4.381283E-01  4.373989E-01  4.367922E-01  4.363080E-01  5.139377E-01
  5.038275E-01  5.814572E-01  5.753346E-01  5.693345E-01  5.634571E-01  5.577022E-01
  5.520699E-01  5.465601E-01  5.411730E-01  5.359084E-01  5.307664E-01  5.257469E-01
  5.208501E-01  5.160758E-01  5.114241E-01  5.068949E-01  5.024884E-01  4.982044E-01
  4.940430E-01  4.900041E-01  4.860879E-01  4.822942E-01  4.786231E-01  4.750745E-01
  4.716486E-01  4.683452E-01  4.651643E-01  4.621061E-01  4.591704E-01  4.563574E-01
  4.536668E-01  4.510989E-01  4.486535E-01  4.463307E-01  4.441305E-01  4.420529E-01
  4.400978E-01  4.382653E-01  4.365554E-01  4.349681E-01  4.335033E-01  4.321611E-01
  4.309415E-01  4.298444E-01  4.288700E-01  4.280181E-01  4.272887E-01  4.266820E-01
  4.261978E-01  5.038275E-01  4.940200E-01  5.716497E-01  5.655271E-01  5.595270E-01
  5.536496E-01  5.478947E-01  5.422624E-01  5.367526E-01  5.313655E-01  5.261009E-01
  5.209589E-01  5.159394E-01  5.110426E-01  5.062683E-01  5.016166E-01  4.970874E-01
  4.926809E-01  4.883969E-01  4.842355E-01  4.801966E-01  4.762804E-01  4.724867E-01
  4.688156E-01  4.652670E-01  4.618411E-01  4.585377E-01  4.553569E-01  4.522986E-01
  4.493629E-01  4.465499E-01  4.438593E-01  4.412914E-01  4.388460E-01  4.365232E-01
  4.343230E-01  4.322454E-01  4.302903E-01  4.284578E-01  4.267479E-01  4.251606E-01
  4.236958E-01  4.223536E-01  4.211340E-01  4.200369E-01  4.190625E-01  4.182106E-01
  4.174812E-01  4.168745E-01  4.163903E-01  4.940200E-01  4.845152E-01  5.621449E-01
  5.560223E-01  5.500222E-01  5.441448E-01  5.383899E-01  5.327576E-01  5.272478E-01
  5.218607E-01  5.165961E-01  5.114541E-01  5.064346E-01  5.015378E-01  4.967635E-01
  4.921118E-01  4.875826E-01  4.831761E-01  4.788921E-01  4.747307E-01  4.706918E-01
  4.667756E-01  4.629819E-01  4.593108E-01  4.557622E-01  4.523363E-01  4.490329E-01
  4.458521E-01  4.427938E-01  4.398581E-01  4.370451E-01  4.343545E-01  4.317866E-01
  4.293412E-01  4.270184E-01  4.248182E-01  4.227406E-01  4.207855E-01  4.189530E-01
  4.172431E-01  4.156558E-01  4.141910E-01  4.128488E-01  4.116292E-01  4.105321E-01
  4.095577E-01  4.087058E-01  4.079764E-01  4.073697E-01  4.068855E-01  4.845152E-01
  4.753131E-01  5.529428E-01  5.468202E-01  5.408201E-01  5.349427E-01  5.291878E-01
  5.235555E-01  5.180457E-01  5.126586E-01  5.073940E-01  5.022520E-01  4.972325E-01
  4.923357E-01  4.875614E-01  4.829097E-01  4.783805E-01  4.739740E-01  4.696900E-01
  4.655286E-01  4.614897E-01  4.575735E-01  4.537798E-01  4.501087E-01  4.465601E-01
  4.431342E-01  4.398308E-01  4.366500E-01  4.335917E-01  4.306560E-01  4.278430E-01
  4.251524E-01  4.225845E-01  4.201391E-01  4.178163E-01  4.156161E-01  4.135385E-01
  4.115834E-01  4.097509E-01  4.080410E-01  4.064537E-01  4.049889E-01  4.036467E-01
  4.024271E-01  4.013300E-01  4.003556E-01  3.995037E-01  3.987743E-01  3.981676E-01
  3.976834E-01  4.753131E-01  4.664137E-01  5.440434E-01  5.379208E-01  5.319207E-01
  5.260433E-01  5.202884E-01  5.146561E-01  5.091463E-01  5.037592E-01  4.984946E-01
  4.933526E-01  4.883331E-01  4.834363E-01  4.786620E-01  4.740103E-01  4.694811E-01
  4.650746E-01  4.607906E-01  4.566292E-01  4.525903E-01  4.486741E-01  4.448804E-01
  4.412093E-01  4.376607E-01  4.342348E-01  4.309314E-01  4.277506E-01  4.246923E-01
  4.217567E-01  4.189436E-01  4.162530E-01  4.136851E-01  4.112397E-01  4.089169E-01
  4.067167E-01  4.046391E-01  4.026840E-01  4.008515E-01  3.991416E-01  3.975543E-01
  3.960895E-01  3.947473E-01  3.935277E-01  3.924306E-01  3.914562E-01  3.906043E-01
  3.898750E-01  3.892682E-01  3.887840E-01  4.664137E-01  4.578170E-01  5.354467E-01
  5.293241E-01  5.233240E-01  5.174466E-01  5.116917E-01  5.060594E-01  5.005496E-01
  4.951625E-01  4.898979E-01  4.847559E-01  4.797364E-01  4.748396E-01  4.700653E-01
  4.654136E-01  4.608844E-01  4.564779E-01  4.521939E-01  4.480325E-01  4.439936E-01
  4.400774E-01  4.362837E-01  4.326126E-01  4.290640E-01  4.256381E-01  4.223347E-01
  4.191539E-01  4.160956E-01  4.131600E-01  4.103469E-01  4.076563E-01  4.050884E-01
  4.026430E-01  4.003202E-01  3.981200E-01  3.960424E-01  3.940873E-01  3.922548E-01
  3.905449E-01  3.889576E-01  3.874928E-01  3.861506E-01  3.849310E-01  3.838339E-01
  3.828595E-01  3.820076E-01  3.812783E-01  3.806715E-01  3.801873E-01  4.578170E-01
  4.495230E-01  5.271527E-01  5.210301E-01  5.150300E-01  5.091526E-01  5.033977E-01
  4.977654E-01  4.922556E-01  4.868685E-01  4.816039E-01  4.764619E-01  4.714424E-01
  4.665456E-01  4.617713E-01  4.571196E-01  4.525904E-01  4.481839E-01  4.438999E-01
  4.397385E-01  4.356996E-01  4.317834E-01  4.279897E-01  4.243186E-01  4.207700E-01
  4.173441E-01  4.140407E-01  4.108599E-01  4.078016E-01  4.048660E-01  4.020529E-01
  3.993624E-01  3.967944E-01  3.943490E-01  3.920263E-01  3.898260E-01  3.877484E-01
  3.857933E-01  3.839608E-01  3.822509E-01  3.806636E-01  3.791988E-01  3.778566E-01
  3.766370E-01  3.755399E-01  3.745655E-01  3.737136E-01  3.729843E-01  3.723775E-01
  3.718933E-01  4.495230E-01  4.415317E-01  5.191614E-01  5.130388E-01  5.070387E-01
  5.011613E-01  4.954064E-01  4.897741E-01  4.842644E-01  4.788772E-01  4.736126E-01
  4.684706E-01  4.634512E-01  4.585543E-01  4.537800E-01  4.491283E-01  4.445992E-01
  4.401926E-01  4.359086E-01  4.317472E-01  4.277083E-01  4.237921E-01  4.199984E-01
  4.163273E-01  4.127787E-01  4.093528E-01  4.060494E-01  4.028686E-01  3.998103E-01
  3.968747E-01  3.940616E-01  3.913711E-01  3.888031E-01  3.863577E-01  3.840350E-01
  3.818347E-01  3.797571E-01  3.778020E-01  3.759695E-01  3.742596E-01  3.726723E-01
  3.712075E-01  3.698653E-01  3.686457E-01  3.675486E-01  3.665742E-01  3.657223E-01
  3.649930E-01  3.643862E-01  3.639021E-01  4.415317E-01  4.338431E-01  5.114728E-01
  5.053502E-01  4.993501E-01  4.934727E-01  4.877178E-01  4.820855E-01  4.765758E-01
  4.711886E-01  4.659240E-01  4.607820E-01  4.557626E-01  4.508657E-01  4.460914E-01
  4.414397E-01  4.369106E-01  4.325040E-01  4.282200E-01  4.240586E-01  4.200198E-01
  4.161035E-01  4.123098E-01  4.086387E-01  4.050901E-01  4.016642E-01  3.983608E-01
  3.951800E-01  3.921217E-01  3.891861E-01  3.863730E-01  3.836825E-01  3.811145E-01
  3.786692E-01  3.763464E-01  3.741461E-01  3.720685E-01  3.701134E-01  3.682809E-01
  3.665710E-01  3.649837E-01  3.635189E-01  3.621767E-01  3.609571E-01  3.598601E-01
  3.588856E-01  3.580337E-01  3.573044E-01  3.566976E-01  3.562135E-01  4.338431E-01
  4.264572E-01  5.040869E-01  4.979643E-01  4.919643E-01  4.860868E-01  4.803319E-01
  4.746996E-01  4.691899E-01  4.638027E-01  4.585381E-01  4.533961E-01  4.483767E-01
  4.434798E-01  4.387055E-01  4.340538E-01  4.295247E-01  4.251181E-01  4.208341E-01
  4.166727E-01  4.126339E-01  4.087176E-01  4.049239E-01  4.012528E-01  3.977043E-01
  3.942783E-01  3.909749E-01  3.877941E-01  3.847358E-01  3.818002E-01  3.789871E-01
  3.762966E-01  3.737286E-01  3.712833E-01  3.689605E-01  3.667603E-01  3.646826E-01
  3.627275E-01  3.608950E-01  3.591851E-01  3.575978E-01  3.561330E-01  3.547908E-01
  3.535712E-01  3.524742E-01  3.514997E-01  3.506478E-01  3.499185E-01  3.493117E-01
  3.488276E-01  4.264572E-01  4.193740E-01  4.970037E-01  4.908811E-01  4.848811E-01
  4.790036E-01  4.732487E-01  4.676164E-01  4.621067E-01  4.567195E-01  4.514549E-01
  4.463129E-01  4.412935E-01  4.363966E-01  4.316223E-01  4.269706E-01  4.224415E-01
  4.180349E-01  4.137509E-01  4.095895E-01  4.055507E-01  4.016344E-01  3.978407E-01
  3.941696E-01  3.906211E-01  3.871951E-01  3.838917E-01  3.807109E-01  3.776526E-01
  3.747170E-01  3.719039E-01  3.692134E-01  3.666454E-01  3.642001E-01  3.618773E-01
  3.596771E-01  3.575994E-01  3.556443E-01  3.538119E-01  3.521019E-01  3.505146E-01
  3.490498E-01  3.477076E-01  3.464880E-01  3.453910E-01  3.444165E-01  3.435646E-01
  3.428353E-01  3.422285E-01  3.417444E-01  4.193740E-01  4.125935E-01  4.902232E-01
  4.841006E-01  4.781006E-01  4.722231E-01  4.664682E-01  4.608359E-01  4.553262E-01
  4.499390E-01  4.446744E-01  4.395324E-01  4.345130E-01  4.296161E-01  4.248418E-01
  4.201901E-01  4.156610E-01  4.112544E-01  4.069704E-01  4.028090E-01  3.987702E-01
  3.948539E-01  3.910602E-01  3.873891E-01  3.838406E-01  3.804146E-01  3.771112E-01
  3.739304E-01  3.708722E-01  3.679365E-01  3.651234E-01  3.624329E-01  3.598649E-01
  3.574196E-01  3.550968E-01  3.528966E-01  3.508189E-01  3.488639E-01  3.470314E-01
  3.453214E-01  3.437341E-01  3.422693E-01  3.409271E-01  3.397075E-01  3.386105E-01
  3.376360E-01  3.367841E-01  3.360548E-01  3.354480E-01  3.349639E-01  4.125935E-01
  4.061158E-01  4.837454E-01  4.776228E-01  4.716228E-01  4.657453E-01  4.599904E-01
  4.543581E-01  4.488484E-01  4.434612E-01  4.381966E-01  4.330546E-01  4.280352E-01
  4.231383E-01  4.183640E-01  4.137123E-01  4.091832E-01  4.047766E-01  4.004926E-01
  3.963312E-01  3.922924E-01  3.883761E-01  3.845824E-01  3.809113E-01  3.773628E-01
  3.739368E-01  3.706334E-01  3.674526E-01  3.643944E-01  3.614587E-01  3.586456E-01
  3.559551E-01  3.533871E-01  3.509418E-01  3.486190E-01  3.464188E-01  3.443411E-01
  3.423861E-01  3.405536E-01  3.388437E-01  3.372563E-01  3.357915E-01  3.344493E-01
  3.332297E-01  3.321327E-01  3.311582E-01  3.303063E-01  3.295770E-01  3.289703E-01
  3.284861E-01  4.061158E-01  3.999407E-01  4.775703E-01  4.714477E-01  4.654477E-01
  4.595702E-01  4.538153E-01  4.481830E-01  4.426733E-01  4.372861E-01  4.320215E-01
  4.268795E-01  4.218601E-01  4.169632E-01  4.121889E-01  4.075372E-01  4.030081E-01
  3.986015E-01  3.943175E-01  3.901561E-01  3.861173E-01  3.822010E-01  3.784073E-01
  3.747362E-01  3.711877E-01  3.677617E-01  3.644583E-01  3.612775E-01  3.582193E-01
  3.552836E-01  3.524705E-01  3.497800E-01  3.472121E-01  3.447667E-01  3.424439E-01
  3.402437E-01  3.381660E-01  3.362110E-01  3.343785E-01  3.326686E-01  3.310812E-01
  3.296164E-01  3.282743E-01  3.270546E-01  3.259576E-01  3.249831E-01  3.241312E-01
  3.234019E-01  3.227952E-01  3.223110E-01  3.999407E-01  3.940683E-01  4.716979E-01
  4.655753E-01  4.595753E-01  4.536978E-01  4.479429E-01  4.423106E-01  4.368009E-01
  4.314137E-01  4.261492E-01  4.210071E-01  4.159877E-01  4.110908E-01  4.063166E-01
  4.016648E-01  3.971357E-01  3.927291E-01  3.884452E-01  3.842837E-01  3.802449E-01
  3.763286E-01  3.725349E-01  3.688638E-01  3.653153E-01  3.618893E-01  3.585859E-01
  3.554051E-01  3.523469E-01  3.494112E-01  3.465981E-01  3.439076E-01  3.413397E-01
  3.388943E-01  3.365715E-01  3.343713E-01  3.322936E-01  3.303386E-01  3.285061E-01
  3.267962E-01  3.252088E-01  3.237441E-01  3.224019E-01  3.211822E-01  3.200852E-01
  3.191107E-01  3.182588E-01  3.175295E-01  3.169228E-01  3.164386E-01  3.940683E-01
  3.884986E-01  4.661282E-01  4.600056E-01  4.540056E-01  4.481281E-01  4.423733E-01
  4.367409E-01  4.312312E-01  4.258440E-01  4.205795E-01  4.154375E-01  4.104180E-01
  4.055212E-01  4.007469E-01  3.960952E-01  3.915660E-01  3.871595E-01  3.828755E-01
  3.787140E-01  3.746752E-01  3.707589E-01  3.669653E-01  3.632941E-01  3.597456E-01
  3.563196E-01  3.530162E-01  3.498354E-01  3.467772E-01  3.438415E-01  3.410284E-01
  3.383379E-01  3.357700E-01  3.333246E-01  3.310018E-01  3.288016E-01  3.267240E-01
  3.247689E-01  3.229364E-01  3.212265E-01  3.196391E-01  3.181744E-01  3.168322E-01
  3.156126E-01  3.145155E-01  3.135410E-01  3.126891E-01  3.119598E-01  3.113531E-01
  3.108689E-01  3.884986E-01  3.832316E-01  4.608613E-01  4.547386E-01  4.487386E-01
  4.428612E-01  4.371063E-01  4.314740E-01  4.259642E-01  4.205771E-01  4.153125E-01
  4.101705E-01  4.051510E-01  4.002542E-01  3.954799E-01  3.908282E-01  3.862990E-01
  3.818925E-01  3.776085E-01  3.734471E-01  3.694082E-01  3.654920E-01  3.616983E-01
  3.580272E-01  3.544786E-01  3.510526E-01  3.477493E-01  3.445684E-01  3.415102E-01
  3.385745E-01  3.357614E-01  3.330709E-01  3.305030E-01  3.280576E-01  3.257348E-01
  3.235346E-01  3.214570E-01  3.195019E-01  3.176694E-01  3.159595E-01  3.143721E-01
  3.129074E-01  3.115652E-01  3.103456E-01  3.092485E-01  3.082741E-01  3.074222E-01
  3.066928E-01  3.060861E-01  3.056019E-01  3.832316E-01  3.782673E-01  4.558970E-01
  4.497744E-01  4.437743E-01  4.378969E-01  4.321420E-01  4.265097E-01  4.209999E-01
  4.156128E-01  4.103482E-01  4.052062E-01  4.001867E-01  3.952899E-01  3.905156E-01
  3.858639E-01  3.813347E-01  3.769282E-01  3.726442E-01  3.684828E-01  3.644439E-01
  3.605277E-01  3.567340E-01  3.530629E-01  3.495143E-01  3.460884E-01  3.427850E-01
  3.396042E-01  3.365459E-01  3.336102E-01  3.307972E-01  3.281066E-01  3.255387E-01
  3.230933E-01  3.207705E-01  3.185703E-01  3.164927E-01  3.145376E-01  3.127051E-01
  3.109952E-01  3.094079E-01  3.079431E-01  3.066009E-01  3.053813E-01  3.042842E-01
  3.033098E-01  3.024579E-01  3.017285E-01  3.011218E-01  3.006376E-01  3.782673E-01
  3.736057E-01  4.512354E-01  4.451128E-01  4.391127E-01  4.332353E-01  4.274804E-01
  4.218481E-01  4.163383E-01  4.109512E-01  4.056866E-01  4.005446E-01  3.955251E-01
  3.906283E-01  3.858540E-01  3.812023E-01  3.766731E-01  3.722666E-01  3.679826E-01
  3.638212E-01  3.597823E-01  3.558661E-01  3.520724E-01  3.484013E-01  3.448527E-01
  3.414268E-01  3.381234E-01  3.349426E-01  3.318843E-01  3.289487E-01  3.261356E-01
  3.234450E-01  3.208771E-01  3.184317E-01  3.161089E-01  3.139087E-01  3.118311E-01
  3.098760E-01  3.080435E-01  3.063336E-01  3.047463E-01  3.032815E-01  3.019393E-01
  3.007197E-01  2.996226E-01  2.986482E-01  2.977963E-01  2.970670E-01  2.964602E-01
  2.959760E-01  3.736057E-01  3.692468E-01  4.468765E-01  4.407539E-01  4.347538E-01
  4.288764E-01  4.231215E-01  4.174892E-01  4.119795E-01  4.065923E-01  4.013277E-01
  3.961857E-01  3.911663E-01  3.862694E-01  3.814951E-01  3.768434E-01  3.723143E-01
  3.679077E-01  3.636237E-01  3.594623E-01  3.554235E-01  3.515072E-01  3.477135E-01
  3.440424E-01  3.404938E-01  3.370679E-01  3.337645E-01  3.305837E-01  3.275254E-01
  3.245898E-01  3.217767E-01  3.190862E-01  3.165182E-01  3.140729E-01  3.117501E-01
  3.095498E-01  3.074722E-01  3.055171E-01  3.036846E-01  3.019747E-01  3.003874E-01
  2.989226E-01  2.975804E-01  2.963608E-01  2.952638E-01  2.942893E-01  2.934374E-01
  2.927081E-01  2.921013E-01  2.916172E-01  3.692468E-01  3.651906E-01  4.428203E-01
  4.366977E-01  4.306977E-01  4.248202E-01  4.190653E-01  4.134330E-01  4.079233E-01
  4.025361E-01  3.972715E-01  3.921295E-01  3.871101E-01  3.822132E-01  3.774389E-01
  3.727872E-01  3.682581E-01  3.638515E-01  3.595675E-01  3.554061E-01  3.513673E-01
  3.474510E-01  3.436573E-01  3.399862E-01  3.364377E-01  3.330117E-01  3.297083E-01
  3.265275E-01  3.234692E-01  3.205336E-01  3.177205E-01  3.150300E-01  3.124620E-01
  3.100167E-01  3.076939E-01  3.054937E-01  3.034160E-01  3.014609E-01  2.996285E-01
  2.979185E-01  2.963312E-01  2.948664E-01  2.935242E-01  2.923046E-01  2.912076E-01