 BEGIN_INFO
   Fermi Energy:     0.017963
 END_INFO
 BEGIN_BLOCK_BANDGRID_3D
 band_energies
 BANDGRID_3D_BANDS
 1
  50  50  50
      0.00000000      0.00000000      0.00000000
      0.14302087      0.00000000      0.00000000
      0.00000000      0.14302087      0.00000000
      0.00000000      0.00000000      0.14302087
 BAND:    1
  5.450881E-01  5.305584E-01  5.166342E-01  5.033154E-01  4.906019E-01  4.784939E-01
  4.669913E-01  4.560941E-01  4.458023E-01  4.361158E-01  4.270348E-01  4.185592E-01
  4.106890E-01  4.034242E-01  3.967648E-01  3.907108E-01  3.852622E-01  3.804189E-01
  3.761811E-01  3.725487E-01  3.695217E-01  3.671001E-01  3.652839E-01  3.640731E-01
  3.634677E-01  3.634677E-01  3.640731E-01  3.652839E-01  3.671001E-01  3.695217E-01
  3.725487E-01  3.761811E-01  3.804189E-01  3.852622E-01  3.907108E-01  3.967648E-01
  4.034242E-01  4.106890E-01  4.185592E-01  4.270348E-01  4.361158E-01  4.458023E-01
  4.560941E-01  4.669913E-01  4.784939E-01  4.906019E-01  5.033154E-01  5.166342E-01
  5.305584E-01  5.450881E-01  5.305584E-01  5.160288E-01  5.021046E-01  4.887857E-01
  4.760723E-01  4.639643E-01  4.524617E-01  4.415645E-01  4.312726E-01  4.215862E-01
  4.125052E-01  4.040296E-01  3.961594E-01  3.888946E-01  3.822351E-01  3.761811E-01
  3.707325E-01  3.658893E-01  3.616515E-01  3.580191E-01  3.549921E-01  3.525705E-01
  3.507543E-01  3.495435E-01  3.489381E-01  3.489381E-01  3.495435E-01  3.507543E-01
  3.525705E-01  3.549921E-01  3.580191E-01  3.616515E-01  3.658893E-01  3.707325E-01
  3.761811E-01  3.822351E-01  3.888946E-01  3.961594E-01  4.040296E-01  4.125052E-01
  4.215862E-01  4.312726E-01  4.415645E-01  4.524617E-01  4.639643E-01  4.760723E-01
  4.887857E-01  5.021046E-01  5.160288E-01  5.305584E-01  5.166342E-01  5.021046E-01
  4.881803E-01  4.748615E-01  4.621481E-01  4.500401E-01  4.385375E-01  4.276402E-01
  4.173484E-01  4.076620E-01  3.985810E-01  3.901054E-01  3.822351E-01  3.749703E-01
  3.683109E-01  3.622569E-01  3.568083E-01  3.519651E-01  3.477273E-01  3.440949E-01
  3.410679E-01  3.386463E-01  3.368301E-01  3.356193E-01  3.350139E-01  3.350139E-01
  3.356193E-01  3.368301E-01  3.386463E-01  3.410679E-01  3.440949E-01  3.477273E-01
  3.519651E-01  3.568083E-01  3.622569E-01  3.683109E-01  3.749703E-01  3.822351E-01
  3.901054E-01  3.985810E-01  4.076620E-01  4.173484E-01  4.276402E-01  4.385375E-01
  4.500401E-01  4.621481E-01  4.748615E-01  4.881803E-01  5.021046E-01  5.166342E-01
  5.033154E-01  4.887857E-01  4.748615E-01  4.615427E-01  4.488293E-01  4.367212E-01
  4.252186E-01  4.143214E-01  4.040296E-01  3.943432E-01  3.852622E-01  3.767865E-01
  3.689163E-01  3.616515E-01  3.549921E-01  3.489381E-01  3.434895E-01  3.386463E-01
  3.344085E-01  3.307760E-01  3.277490E-01  3.253274E-01  3.235112E-01  3.223004E-01
  3.216950E-01  3.216950E-01  3.223004E-01  3.235112E-01  3.253274E-01  3.277490E-01
  3.307760E-01  3.344085E-01  3.386463E-01  3.434895E-01  3.489381E-01  3.549921E-01
  3.616515E-01  3.689163E-01  3.767865E-01  3.852622E-01  3.943432E-01  4.040296E-01
  4.143214E-01  4.252186E-01  4.367212E-01  4.488293E-01  4.615427E-01  4.748615E-01
  4.887857E-01  5.033154E-01  4.906019E-01  4.760723E-01  4.621481E-01  4.488293E-01
  4.361158E-01  4.240078E-01  4.125052E-01  4.016080E-01  3.913162E-01  3.816297E-01
  3.725487E-01  3.640731E-01  3.562029E-01  3.489381E-01  3.422787E-01  3.362247E-01
  3.307760E-01  3.259328E-01  3.216950E-01  3.180626E-01  3.150356E-01  3.126140E-01
  3.107978E-01  3.095870E-01  3.089816E-01  3.089816E-01  3.095870E-01  3.107978E-01
  3.126140E-01  3.150356E-01  3.180626E-01  3.216950E-01  3.259328E-01  3.307760E-01
  3.362247E-01  3.422787E-01  3.489381E-01  3.562029E-01  3.640731E-01  3.725487E-01
  3.816297E-01  3.913162E-01  4.016080E-01  4.125052E-01  4.240078E-01  4.361158E-01
  4.488293E-01  4.621481E-01  4.760723E-01  4.906019E-01  4.784939E-01  4.639643E-01
  4.500401E-01  4.367212E-01  4.240078E-01  4.118998E-01  4.003972E-01  3.895000E-01
  3.792081E-01  3.695217E-01  3.604407E-01  3.519651E-01  3.440949E-01  3.368301E-01
  3.301706E-01  3.241166E-01  3.186680E-01  3.138248E-01  3.095870E-01  3.059546E-01
  3.029276E-01  3.005060E-01  2.986898E-01  2.974790E-01  2.968736E-01  2.968736E-01
  2.974790E-01  2.986898E-01  3.005060E-01  3.029276E-01  3.059546E-01  3.095870E-01
  3.138248E-01  3.186680E-01  3.241166E-01  3.301706E-01  3.368301E-01  3.440949E-01
  3.519651E-01  3.604407E-01  3.695217E-01  3.792081E-01  3.895000E-01  4.003972E-01
  4.118998E-01  4.240078E-01  4.367212E-01  4.500401E-01  4.639643E-01  4.784939E-01
  4.669913E-01  4.524617E-01  4.385375E-01  4.252186E-01  4.125052E-01  4.003972E-01
  3.888946E-01  3.779973E-01  3.677055E-01  3.580191E-01  3.489381E-01  3.404625E-01
  3.325923E-01  3.253274E-01  3.186680E-01  3.126140E-01  3.071654E-01  3.023222E-01
  2.980844E-01  2.944520E-01  2.914250E-01  2.890034E-01  2.871872E-01  2.859764E-01
  2.853710E-01  2.853710E-01  2.859764E-01  2.871872E-01  2.890034E-01  2.914250E-01
  2.944520E-01  2.980844E-01  3.023222E-01  3.071654E-01  3.126140E-01  3.186680E-01
  3.253274E-01  3.325923E-01  3.404625E-01  3.489381E-01  3.580191E-01  3.677055E-01
  3.779973E-01  3.888946E-01  4.003972E-01  4.125052E-01  4.252186E-01  4.385375E-01
  4.524617E-01  4.669913E-01  4.560941E-01  4.415645E-01  4.276402E-01  4.143214E-01
  4.016080E-01  3.895000E-01  3.779973E-01  3.671001E-01  3.568083E-01  3.471219E-01
  3.380409E-01  3.295652E-01  3.216950E-01  3.144302E-01  3.077708E-01  3.017168E-01
  2.962682E-01  2.914250E-01  2.871872E-01  2.835548E-01  2.805278E-01  2.781061E-01
  2.762899E-01  2.750791E-01  2.744737E-01  2.744737E-01  2.750791E-01  2.762899E-01
  2.781061E-01  2.805278E-01  2.835548E-01  2.871872E-01  2.914250E-01  2.962682E-01
  3.017168E-01  3.077708E-01  3.144302E-01  3.216950E-01  3.295652E-01  3.380409E-01
  3.471219E-01  3.568083E-01  3.671001E-01  3.779973E-01  3.895000E-01  4.016080E-01
  4.143214E-01  4.276402E-01  4.415645E-01  4.560941E-01  4.458023E-01  4.312726E-01
  4.173484E-01  4.040296E-01  3.913162E-01  3.792081E-01  3.677055E-01  3.568083E-01
  3.465165E-01  3.368301E-01  3.277490E-01  3.192734E-01  3.114032E-01  3.041384E-01
  2.974790E-01  2.914250E-01  2.859764E-01  2.811332E-01  2.768953E-01  2.732629E-01
  2.702359E-01  2.678143E-01  2.659981E-01  2.647873E-01  2.641819E-01  2.641819E-01
  2.647873E-01  2.659981E-01  2.678143E-01  2.702359E-01  2.732629E-01  2.768953E-01
  2.811332E-01  2.859764E-01  2.914250E-01  2.974790E-01  3.041384E-01  3.114032E-01
  3.192734E-01  3.277490E-01  3.368301E-01  3.465165E-01  3.568083E-01  3.677055E-01
  3.792081E-01  3.913162E-01  4.040296E-01  4.173484E-01  4.312726E-01  4.458023E-01
  4.361158E-01  4.215862E-01  4.076620E-01  3.943432E-01  3.816297E-01  3.695217E-01
  3.580191E-01  3.471219E-01  3.368301E-01  3.271436E-01  3.180626E-01  3.095870E-01
  3.017168E-01  2.944520E-01  2.877926E-01  2.817386E-01  2.762899E-01  2.714467E-01
  2.672089E-01  2.635765E-01  2.605495E-01  2.581279E-01  2.563117E-01  2.551009E-01
  2.544955E-01  2.544955E-01  2.551009E-01  2.563117E-01  2.581279E-01  2.605495E-01
  2.635765E-01  2.672089E-01  2.714467E-01  2.762899E-01  2.817386E-01  2.877926E-01
  2.944520E-01  3.017168E-01  3.095870E-01  3.180626E-01  3.271436E-01  3.368301E-01
  3.471219E-01  3.580191E-01  3.695217E-01  3.816297E-01  3.943432E-01  4.076620E-01
  4.215862E-01  4.361158E-01  4.270348E-01  4.125052E-01  3.985810E-01  3.852622E-01
  3.725487E-01  3.604407E-01  3.489381E-01  3.380409E-01  3.277490E-01  3.180626E-01
  3.089816E-01  3.005060E-01  2.926358E-01  2.853710E-01  2.787116E-01  2.726575E-01
  2.672089E-01  2.623657E-01  2.581279E-01  2.544955E-01  2.514685E-01  2.490469E-01
  2.472307E-01  2.460199E-01  2.454145E-01  2.454145E-01  2.460199E-01  2.472307E-01
  2.490469E-01  2.514685E-01  2.544955E-01  2.581279E-01  2.623657E-01  2.672089E-01
  2.726575E-01  2.787116E-01  2.853710E-01  2.926358E-01  3.005060E-01  3.089816E-01
  3.180626E-01  3.277490E-01  3.380409E-01  3.489381E-01  3.604407E-01  3.725487E-01
  3.852622E-01  3.985810E-01  4.125052E-01  4.270348E-01  4.185592E-01  4.040296E-01
  3.901054E-01  3.767865E-01  3.640731E-01  3.519651E-01  3.404625E-01  3.295652E-01
  3.192734E-01  3.095870E-01  3.005060E-01  2.920304E-01  2.841602E-01  2.768953E-01
  2.702359E-01  2.641819E-01  2.587333E-01  2.538901E-01  2.496523E-01  2.460199E-01
  2.429929E-01  2.405713E-01  2.387551E-01  2.375443E-01  2.369389E-01  2.369389E-01
  2.375443E-01  2.387551E-01  2.405713E-01  2.429929E-01  2.460199E-01  2.496523E-01
  2.538901E-01  2.587333E-01  2.641819E-01  2.702359E-01  2.768953E-01  2.841602E-01
  2.920304E-01  3.005060E-01  3.095870E-01  3.192734E-01  3.295652E-01  3.404625E-01
  3.519651E-01  3.640731E-01  3.767865E-01  3.901054E-01  4.040296E-01  4.185592E-01
  4.106890E-01  3.961594E-01  3.822351E-01  3.689163E-01  3.562029E-01  3.440949E-01
  3.325923E-01  3.216950E-01  3.114032E-01  3.017168E-01  2.926358E-01  2.841602E-01
  2.762899E-01  2.690251E-01  2.623657E-01  2.563117E-01  2.508631E-01  2.460199E-01
  2.417821E-01  2.381497E-01  2.351227E-01  2.327011E-01  2.308849E-01  2.296741E-01
  2.290687E-01  2.290687E-01  2.296741E-01  2.308849E-01  2.327011E-01  2.351227E-01
  2.381497E-01  2.417821E-01  2.460199E-01  2.508631E-01  2.563117E-01  2.623657E-01
  2.690251E-01  2.762899E-01  2.841602E-01  2.926358E-01  3.017168E-01  3.114032E-01
  3.216950E-01  3.325923E-01  3.440949E-01  3.562029E-01  3.689163E-01  3.822351E-01
  3.961594E-01  4.106890E-01  4.034242E-01  3.888946E-01  3.749703E-01  3.616515E-01
  3.489381E-01  3.368301E-01  3.253274E-01  3.144302E-01  3.041384E-01  2.944520E-01
  2.853710E-01  2.768953E-01  2.690251E-01  2.617603E-01  2.551009E-01  2.490469E-01
  2.435983E-01  2.387551E-01  2.345173E-01  2.308849E-01  2.278579E-01  2.254362E-01
  2.236200E-01  2.224092E-01  2.218038E-01  2.218038E-01  2.224092E-01  2.236200E-01
  2.254362E-01  2.278579E-01  2.308849E-01  2.345173E-01  2.387551E-01  2.435983E-01
  2.490469E-01  2.551009E-01  2.617603E-01  2.690251E-01  2.768953E-01  2.853710E-01
  2.944520E-01  3.041384E-01  3.144302E-01  3.253274E-01  3.368301E-01  3.489381E-01
  3.616515E-01  3.749703E-01  3.888946E-01  4.034242E-01  3.967648E-01  3.822351E-01
  3.683109E-01  3.549921E-01  3.422787E-01  3.301706E-01  3.186680E-01  3.077708E-01
  2.974790E-01  2.877926E-01  2.787116E-01  2.702359E-01  2.623657E-01  2.551009E-01
  2.484415E-01  2.423875E-01  2.369389E-01  2.320957E-01  2.278579E-01  2.242254E-01
  2.211984E-01  2.187768E-01  2.169606E-01  2.157498E-01  2.151444E-01  2.151444E-01
  2.157498E-01  2.169606E-01  2.187768E-01  2.211984E-01  2.242254E-01  2.278579E-01
  2.320957E-01  2.369389E-01  2.423875E-01  2.484415E-01  2.551009E-01  2.623657E-01
  2.702359E-01  2.787116E-01  2.877926E-01  2.974790E-01  3.077708E-01  3.186680E-01
  3.301706E-01  3.422787E-01  3.549921E-01  3.683109E-01  3.822351E-01  3.967648E-01
  3.907108E-01  3.761811E-01  3.622569E-01  3.489381E-01  3.362247E-01  3.241166E-01
  3.126140E-01  3.017168E-01  2.914250E-01  2.817386E-01  2.726575E-01  2.641819E-01
  2.563117E-01  2.490469E-01  2.423875E-01  2.363335E-01  2.308849E-01  2.260417E-01
  2.218038E-01  2.181714E-01  2.151444E-01  2.127228E-01  2.109066E-01  2.096958E-01
  2.090904E-01  2.090904E-01  2.096958E-01  2.109066E-01  2.127228E-01  2.151444E-01
  2.181714E-01  2.218038E-01  2.260417E-01  2.308849E-01  2.363335E-01  2.423875E-01
  2.490469E-01  2.563117E-01  2.641819E-01  2.726575E-01  2.817386E-01  2.914250E-01
  3.017168E-01  3.126140E-01  3.241166E-01  3.362247E-01  3.489381E-01  3.622569E-01
  3.761811E-01  3.907108E-01  3.852622E-01  3.707325E-01  3.568083E-01  3.434895E-01
  3.307760E-01  3.186680E-01  3.071654E-01  2.962682E-01  2.859764E-01  2.762899E-01
  2.672089E-01  2.587333E-01  2.508631E-01  2.435983E-01  2.369389E-01  2.308849E-01
  2.254362E-01  2.205930E-01  2.163552E-01  2.127228E-01  2.096958E-01  2.072742E-01
  2.054580E-01  2.042472E-01  2.036418E-01  2.036418E-01  2.042472E-01  2.054580E-01
  2.072742E-01  2.096958E-01  2.127228E-01  2.163552E-01  2.205930E-01  2.254362E-01
  2.308849E-01  2.369389E-01  2.435983E-01  2.508631E-01  2.587333E-01  2.672089E-01
  2.762899E-01  2.859764E-01  2.962682E-01  3.071654E-01  3.186680E-01  3.307760E-01
  3.434895E-01  3.568083E-01  3.707325E-01  3.852622E-01  3.804189E-01  3.658893E-01
  3.519651E-01  3.386463E-01  3.259328E-01  3.138248E-01  3.023222E-01  2.914250E-01
  2.811332E-01  2.714467E-01  2.623657E-01  2.538901E-01  2.460199E-01  2.387551E-01
  2.320957E-01  2.260417E-01  2.205930E-01  2.157498E-01  2.115120E-01  2.078796E-01
  2.048526E-01  2.024310E-01  2.006148E-01  1.994040E-01  1.987986E-01  1.987986E-01
  1.994040E-01  2.006148E-01  2.024310E-01  2.048526E-01  2.078796E-01  2.115120E-01
  2.157498E-01  2.205930E-01  2.260417E-01  2.320957E-01  2.387551E-01  2.460199E-01
  2.538901E-01  2.623657E-01  2.714467E-01  2.811332E-01  2.914250E-01  3.023222E-01
  3.138248E-01  3.259328E-01  3.386463E-01  3.519651E-01  3.658893E-01  3.804189E-01
  3.761811E-01  3.616515E-01  3.477273E-01  3.344085E-01  3.216950E-01  3.095870E-01
  2.980844E-01  2.871872E-01  2.768953E-01  2.672089E-01  2.581279E-01  2.496523E-01
  2.417821E-01  2.345173E-01  2.278579E-01  2.218038E-01  2.163552E-01  2.115120E-01
  2.072742E-01  2.036418E-01  2.006148E-01  1.981932E-01  1.963770E-01  1.951662E-01
  1.945608E-01  1.945608E-01  1.951662E-01  1.963770E-01  1.981932E-01  2.006148E-01
  2.036418E-01  2.072742E-01  2.115120E-01  2.163552E-01  2.218038E-01  2.278579E-01
  2.345173E-01  2.417821E-01  2.496523E-01  2.581279E-01  2.672089E-01  2.768953E-01
  2.871872E-01  2.980844E-01  3.095870E-01  3.216950E-01  3.344085E-01  3.477273E-01
  3.616515E-01  3.761811E-01  3.725487E-01  3.580191E-01  3.440949E-01  3.307760E-01
  3.180626E-01  3.059546E-01  2.944520E-01  2.835548E-01  2.732629E-01  2.635765E-01
  2.544955E-01  2.460199E-01  2.381497E-01  2.308849E-01  2.242254E-01  2.181714E-01
  2.127228E-01  2.078796E-01  2.036418E-01  2.000094E-01  1.969824E-01  1.945608E-01
  1.927446E-01  1.915338E-01  1.909284E-01  1.909284E-01  1.915338E-01  1.927446E-01
  1.945608E-01  1.969824E-01  2.000094E-01  2.036418E-01  2.078796E-01  2.127228E-01
  2.181714E-01  2.242254E-01  2.308849E-01  2.381497E-01  2.460199E-01  2.544955E-01
  2.635765E-01  2.732629E-01  2.835548E-01  2.944520E-01  3.059546E-01  3.180626E-01
  3.307760E-01  3.440949E-01  3.580191E-01  3.725487E-01  3.695217E-01  3.549921E-01
  3.410679E-01  3.277490E-01  3.150356E-01  3.029276E-01  2.914250E-01  2.805278E-01
  2.702359E-01  2.605495E-01  2.514685E-01  2.429929E-01  2.351227E-01  2.278579E-01
  2.211984E-01  2.151444E-01  2.096958E-01  2.048526E-01  2.006148E-01  1.969824E-01
  1.939554E-01  1.915338E-01  1.897176E-01  1.885068E-01  1.879014E-01  1.879014E-01
  1.885068E-01  1.897176E-01  1.915338E-01  1.939554E-01  1.969824E-01  2.006148E-01
  2.048526E-01  2.096958E-01  2.151444E-01  2.211984E-01  2.278579E-01  2.351227E-01
  2.429929E-01  2.514685E-01  2.605495E-01  2.702359E-01  2.805278E-01  2.914250E-01
  3.029276E-01  3.150356E-01  3.277490E-01  3.410679E-01  3.549921E-01  3.695217E-01
  3.671001E-01  3.525705E-01  3.386463E-01  3.253274E-01  3.126140E-01  3.005060E-01
  2.890034E-01  2.781061E-01  2.678143E-01  2.581279E-01  2.490469E-01  2.405713E-01
  2.327011E-01  2.254362E-01  2.187768E-01  2.127228E-01  2.072742E-01  2.024310E-01
  1.981932E-01  1.945608E-01  1.915338E-01  1.891122E-01  1.872960E-01  1.860852E-01
  1.854798E-01  1.854798E-01  1.860852E-01  1.872960E-01  1.891122E-01  1.915338E-01
  1.945608E-01  1.981932E-01  2.024310E-01  2.072742E-01  2.127228E-01  2.187768E-01
  2.254362E-01  2.327011E-01  2.405713E-01  2.490469E-01  2.581279E-01  2.678143E-01
  2.781061E-01  2.890034E-01  3.005060E-01  3.126140E-01  3.253274E-01  3.386463E-01
  3.525705E-01  3.671001E-01  3.652839E-01  3.507543E-01  3.368301E-01  3.235112E-01
  3.107978E-01  2.986898E-01  2.871872E-01  2.762899E-01  2.659981E-01  2.563117E-01
  2.472307E-01  2.387551E-01  2.308849E-01  2.236200E-01  2.169606E-01  2.109066E-01
  2.054580E-01  2.006148E-01  1.963770E-01  1.927446E-01  1.897176E-01  1.872960E-01
  1.854798E-01  1.842690E-01  1.836636E-01  1.836636E-01  1.842690E-01  1.854798E-01
  1.872960E-01  1.897176E-01  1.927446E-01  1.963770E-01  2.006148E-01  2.054580E-01
  2.109066E-01  2.169606E-01  2.236200E-01  2.308849E-01  2.387551E-01  2.472307E-01
  2.563117E-01  2.659981E-01  2.762899E-01  2.871872E-01  2.986898E-01  3.107978E-01
  3.235112E-01  3.368301E-01  3.507543E-01  3.652839E-01  3.640731E-01  3.495435E-01
  3.356193E-01  3.223004E-01  3.095870E-01  2.974790E-01  2.859764E-01  2.750791E-01
  2.647873E-01  2.551009E-01  2.460199E-01  2.375443E-01  2.296741E-01  2.224092E-01
  2.157498E-01  2.096958E-01  2.042472E-01  1.994040E-01  1.951662E-01  1.915338E-01
  1.885068E-01  1.860852E-01  1.842690E-01  1.830582E-01  1.824528E-01  1.824528E-01
  1.830582E-01  1.842690E-01  1.860852E-01  1.885068E-01  1.915338E-01  1.951662E-01
  1.994040E-01  2.042472E-01  2.096958E-01  2.157498E-01  2.224092E-01  2.296741E-01
  2.375443E-01  2.460199E-01  2.551009E-01  2.647873E-01  2.750791E-01  2.859764E-01
  2.974790E-01  3.095870E-01  3.223004E-01  3.356193E-01  3.495435E-01  3.640731E-01
  3.634677E-01  3.489381E-01  3.350139E-01  3.216950E-01  3.089816E-01  2.968736E-01
  2.853710E-01  2.744737E-01  2.641819E-01  2.544955E-01  2.454145E-01  2.369389E-01
  2.290687E-01  2.218038E-01  2.151444E-01  2.090904E-01  2.036418E-01  1.987986E-01
  1.945608E-01  1.909284E-01  1.879014E-01  1.854798E-01  1.836636E-01  1.824528E-01
  1.818474E-01  1.818474E-01  1.824528E-01  1.836636E-01  1.854798E-01  1.879014E-01
  1.909284E-01  1.945608E-01  1.987986E-01  2.036418E-01  2.090904E-01  2.151444E-01
  2.218038E-01  2.290687E-01  2.369389E-01  2.454145E-01  2.544955E-01  2.641819E-01
  2.744737E-01  2.853710E-01  2.968736E-01  3.089816E-01  3.216950E-01  3.350139E-01
  3.489381E-01  3.634677E-01  3.634677E-01  3.489381E-01  3.350139E-01  3.216950E-01
  3.089816E-01  2.968736E-01  2.853710E-01  2.744737E-01  2.641819E-01  2.544955E-01
  2.454145E-01  2.369389E-01  2.290687E-01  2.218038E-01  2.151444E-01  2.090904E-01
  2.036418E-01  1.987986E-01  1.945608E-01  1.909284E-01  1.879014E-01  1.854798E-01
  1.836636E-01  1.824528E-01  1.818474E-01  1.818474E-01  1.824528E-01  1.836636E-01
  1.854798E-01  1.879014E-01  1.909284E-01  1.945608E-01  1.987986E-01  2.036418E-01
  2.090904E-01  2.151444E-01  2.218038E-01  2.290687E-01  2.369389E-01  2.454145E-01
  2.544955E-01  2.641819E-01  2.744737E-01  2.853710E-01  2.968736E-01  3.089816E-01
  3.216950E-01  3.350139E-01  3.489381E-01  3.634677E-01  3.640731E-01  3.495435E-01
  3.356193E-01  3.223004E-01  3.095870E-01  2.974790E-01  2.859764E-01  2.750791E-01
  2.647873E-01  2.551009E-01  2.460199E-01  2.375443E-01  2.296741E-01  2.224092E-01
  2.157498E-01  2.096958E-01  2.042472E-01  1.994040E-01  1.951662E-01  1.915338E-01
  1.885068E-01  1.860852E-01  1.842690E-01  1.830582E-01  1.824528E-01  1.824528E-01
  1.830582E-01  1.842690E-01  1.860852E-01  1.885068E-01  1.915338E-01  1.951662E-01
  1.994040E-01  2.042472E-01  2.096958E-01  2.157498E-01  2.224092E-01  2.296741E-01
  2.375443E-01  2.460199E-01  2.551009E-01  2.647873E-01  2.750791E-01  2.859764E-01
  2.974790E-01  3.095870E-01  3.223004E-01  3.356193E-01  3.495435E-01  3.640731E-01
  3.652839E-01  3.507543E-01  3.368301E-01  3.235112E-01  3.107978E-01  2.986898E-01
  2.871872E-01  2.762899E-01  2.659981E-01  2.563117E-01  2.472307E-01  2.387551E-01
  2.308849E-01  2.236200E-01  2.169606E-01  2.109066E-01  2.054580E-01  2.006148E-01
  1.963770E-01  1.927446E-01  1.897176E-01  1.872960E-01  1.854798E-01  1.842690E-01
  1.836636E-01  1.836636E-01  1.842690E-01  1.854798E-01  1.872960E-01  1.897176E-01
  1.927446E-01  1.963770E-01  2.006148E-01  2.054580E-01  2.109066E-01  2.169606E-01
  2.236200E-01  2.308849E-01  2.387551E-01  2.472307E-01  2.563117E-01  2.659981E-01
  2.762899E-01  2.871872E-01  2.986898E-01  3.107978E-01  3.235112E-01  3.368301E-01
  3.507543E-01  3.652839E-01  3.671001E-01  3.525705E-01  3.386463E-01  3.253274E-01
  3.126140E-01  3.005060E-01  2.890034E-01  2.781061E-01  2.678143E-01  2.581279E-01
  2.490469E-01  2.405713E-01  2.327011E-01  2.254362E-01  2.187768E-01  2.127228E-01
  2.072742E-01  2.024310E-01  1.981932E-01  1.945608E-01  1.915338E-01  1.891122E-01
  1.872960E-01  1.860852E-01  1.854798E-01  1.854798E-01  1.860852E-01  1.872960E-01
  1.891122E-01  1.915338E-01  1.945608E-01  1.981932E-01  2.024310E-01  2.072742E-01
  2.127228E-01  2.187768E-01  2.254362E-01  2.327011E-01  2.405713E-01  2.490469E-01
  2.581279E-01  2.678143E-01  2.781061E-01  2.890034E-01  3.005060E-01  3.126140E-01
  3.253274E-01  3.386463E-01  3.525705E-01  3.671001E-01  3.695217E-01  3.549921E-01
  3.410679E-01  3.277490E-01  3.150356E-01  3.029276E-01  2.914250E-01  2.805278E-01
  2.702359E-01  2.605495E-01  2.514685E-01  2.429929E-01  2.351227E-01  2.278579E-01
  2.211984E-01  2.151444E-01  2.096958E-01  2.048526E-01  2.006148E-01  1.969824E-01
  1.939554E-01  1.915338E-01  1.897176E-01  1.885068E-01  1.879014E-01  1.879014E-01
  1.885068E-01  1.897176E-01  1.915338E-01  1.939554E-01  1.969824E-01  2.006148E-01
  2.048526E-01  2.096958E-01  2.151444E-01  2.211984E-01  2.278579E-01  2.351227E-01
  2.429929E-01  2.514685E-01  2.605495E-01  2.702359E-01  2.805278E-01  2.914250E-01
  3.029276E-01  3.150356E-01  3.277490E-01  3.410679E-01  3.549921E-01  3.695217E-01
  3.725487E-01  3.580191E-01  3.440949E-01  3.307760E-01  3.180626E-01  3.059546E-01
  2.944520E-01  2.835548E-01  2.732629E-01  2.635765E-01  2.544955E-01  2.460199E-01
  2.381497E-01  2.308849E-01  2.242254E-01  2.181714E-01  2.127228E-01  2.078796E-01
  2.036418E-01  2.000094E-01  1.969824E-01  1.945608E-01  1.927446E-01  1.915338E-01
  1.909284E-01  1.909284E-01  1.915338E-01  1.927446E-01  1.945608E-01  1.969824E-01
  2.000094E-01  2.036418E-01  2.078796E-01  2.127228E-01  2.181714E-01  2.242254E-01
  2.308849E-01  2.381497E-01  2.460199E-01  2.544955E-01  2.635765E-01  2.732629E-01
  2.835548E-01  2.944520E-01  3.059546E-01  3.180626E-01  3.307760E-01  3.440949E-01
  3.580191E-01  3.725487E-01  3.761811E-01  3.616515E-01  3.477273E-01  3.344085E-01
  3.216950E-01  3.095870E-01  2.980844E-01  2.871872E-01  2.768953E-01  2.672089E-01
  2.581279E-01  2.496523E-01  2.417821E-01  2.345173E-01  2.278579E-01  2.218038E-01
  2.163552E-01  2.115120E-01  2.072742E-01  2.036418E-01  2.006148E-01  1.981932E-01
  1.963770E-01  1.951662E-01  1.945608E-01  1.945608E-01  1.951662E-01  1.963770E-01
  1.981932E-01  2.006148E-01  2.036418E-01  2.072742E-01  2.115120E-01  2.163552E-01
  2.218038E-01  2.278579E-01  2.345173E-01  2.417821E-01  2.496523E-01  2.581279E-01
  2.672089E-01  2.768953E-01  2.871872E-01  2.980844E-01  3.095870E-01  3.216950E-01
  3.344085E-01  3.477273E-01  3.616515E-01  3.761811E-01  3.804189E-01  3.658893E-01
  3.519651E-01  3.386463E-01  3.259328E-01  3.138248E-01  3.023222E-01  2.914250E-01
  2.811332E-01  2.714467E-01  2.623657E-01  2.538901E-01  2.460199E-01  2.387551E-01
  2.320957E-01  2.260417E-01  2.205930E-01  2.157498E-01  2.115120E-01  2.078796E-01
  2.048526E-01  2.024310E-01  2.006148E-01  1.994040E-01  1.987986E-01  1.987986E-01
  1.994040E-01  2.006148E-01  2.024310E-01  2.048526E-01  2.078796E-01  2.115120E-01
  2.157498E-01  2.205930E-01  2.260417E-01  2.320957E-01  2.387551E-01  2.460199E-01
  2.538901E-01  2.623657E-01  2.714467E-01  2.811332E-01  2.914250E-01  3.023222E-01
  3.138248E-01  3.259328E-01  3.386463E-01  3.519651E-01  3.658893E-01  3.804189E-01
  3.852622E-01  3.707325E-01  3.568083E-01  3.434895E-01  3.307760E-01  3.186680E-01
  3.071654E-01  2.962682E-01  2.859764E-01  2.762899E-01  2.672089E-01  2.587333E-01
  2.508631E-01  2.435983E-01  2.369389E-01  2.308849E-01  2.254362E-01  2.205930E-01
  2.163552E-01  2.127228E-01  2.096958E-01  2.072742E-01  2.054580E-01  2.042472E-01
  2.036418E-01  2.036418E-01  2.042472E-01  2.054580E-01  2.072742E-01  2.096958E-01
  2.127228E-01  2.163552E-01  2.205930E-01  2.254362E-01  2.308849E-01  2.369389E-01
  2.435983E-01  2.508631E-01  2.587333E-01  2.672089E-01  2.762899E-01  2.859764E-01
  2.962682E-01  3.071654E-01  3.186680E-01  3.307760E-01  3.434895E-01  3.568083E-01
  3.707325E-01  3.852622E-01  3.907108E-01  3.761811E-01  3.622569E-01  3.489381E-01
  3.362247E-01  3.241166E-01  3.126140E-01  3.017168E-01  2.914250E-01  2.817386E-01
  2.726575E-01  2.641819E-01  2.563117E-01  2.490469E-01  2.423875E-01  2.363335E-01
  2.308849E-01  2.260417E-01  2.218038E-01  2.181714E-01  2.151444E-01  2.127228E-01
  2.109066E-01  2.096958E-01  2.090904E-01  2.090904E-01  2.096958E-01  2.109066E-01
  2.127228E-01  2.151444E-01  2.181714E-01  2.218038E-01  2.260417E-01  2.308849E-01
  2.363335E-01  2.423875E-01  2.490469E-01  2.563117E-01  2.641819E-01  2.726575E-01
  2.817386E-01  2.914250E-01  3.017168E-01  3.126140E-01  3.241166E-01  3.362247E-01
  3.489381E-01  3.622569E-01  3.761811E-01  3.907108E-01  3.967648E-01  3.822351E-01
  3.683109E-01  3.549921E-01  3.422787E-01  3.301706E-01  3.186680E-01  3.077708E-01
  2.974790E-01  2.877926E-01  2.787116E-01  2.702359E-01  2.623657E-01  2.551009E-01
  2.484415E-01  2.423875E-01  2.369389E-01  2.320957E-01  2.278579E-01  2.242254E-01
  2.211984E-01  2.187768E-01  2.169606E-01  2.157498E-01  2.151444E-01  2.151444E-01
  2.157498E-01  2.169606E-01  2.187768E-01  2.211984E-01  2.242254E-01  2.278579E-01
  2.320957E-01  2.369389E-01  2.423875E-01  2.484415E-01  2.551009E-01  2.623657E-01
  2.702359E-01  2.787116E-01  2.877926E-01  2.974790E-01  3.077708E-01  3.186680E-01
  3.301706E-01  3.422787E-01  3.549921E-01  3.683109E-01  3.822351E-01  3.967648E-01
  4.034242E-01  3.888946E-01  3.749703E-01  3.616515E-01  3.489381E-01  3.368301E-01
  3.253274E-01  3.144302E-01  3.041384E-01  2.944520E-01  2.853710E-01  2.768953E-01
  2.690251E-01  2.617603E-01  2.551009E-01  2.490469E-01  2.435983E-01  2.387551E-01
  2.345173E-01  2.308849E-01  2.278579E-01  2.254362E-01  2.236200E-01  2.224092E-01
  2.218038E-01  2.218038E-01  2.224092E-01  2.236200E-01  2.254362E-01  2.278579E-01
  2.308849E-01  2.345173E-01  2.387551E-01  2.435983E-01  2.490469E-01  2.551009E-01
  2.617603E-01  2.690251E-01  2.768953E-01  2.853710E-01  2.944520E-01  3.041384E-01
  3.144302E-01  3.253274E-01  3.368301E-01  3.489381E-01  3.616515E-01  3.749703E-01
  3.888946E-01  4.034242E-01  4.106890E-01  3.961594E-01  3.822351E-01  3.689163E-01
  3.562029E-01  3.440949E-01  3.325923E-01  3.216950E-01  3.114032E-01  3.017168E-01
  2.926358E-01  2.841602E-01  2.762899E-01  2.690251E-01  2.623657E-01  2.563117E-01
  2.508631E-01  2.460199E-01  2.417821E-01  2.381497E-01  2.351227E-01  2.327011E-01
  2.308849E-01  2.296741E-01  2.290687E-01  2.290687E-01  2.296741E-01  2.308849E-01
  2.327011E-01  2.351227E-01  2.381497E-01  2.417821E-01  2.460199E-01  2.508631E-01
  2.563117E-01  2.623657E-01  2.690251E-01  2.762899E-01  2.841602E-01  2.926358E-01
  3.017168E-01  3.114032E-01  3.216950E-01  3.325923E-01  3.440949E-01  3.562029E-01
  3.689163E-01  3.822351E-01  3.961594E-01  4.106890E-01  4.185592E-01  4.040296E-01
  3.901054E-01  3.767865E-01  3.640731E-01  3.519651E-01  3.404625E-01  3.295652E-01
  3.192734E-01  3.095870E-01  3.005060E-01  2.920304E-01  2.841602E-01  2.768953E-01
  2.702359E-01  2.641819E-01  2.587333E-01  2.538901E-01  2.496523E-01  2.460199E-01
  2.429929E-01  2.405713E-01  2.387551E-01  2.375443E-01  2.369389E-01  2.369389E-01
  2.375443E-01  2.387551E-01  2.405713E-01  2.429929E-01  2.460199E-01  2.496523E-01
  2.538901E-01  2.587333E-01  2.641819E-01  2.702359E-01  2.768953E-01  2.841602E-01
  2.920304E-01  3.005060E-01  3.095870E-01  3.192734E-01  3.295652E-01  3.404625E-01
  3.519651E-01  3.640731E-01  3.767865E-01  3.901054E-01  4.040296E-01  4.185592E-01
  4.270348E-01  4.125052E-01  3.985810E-01  3.852622E-01  3.725487E-01  3.604407E-01
  3.489381E-01  3.380409E-01  3.277490E-01  3.180626E-01  3.089816E-01  3.005060E-01
  2.926358E-01  2.853710E-01  2.787116E-01  2.726575E-01  2.672089E-01  2.623657E-01
  2.581279E-01  2.544955E-01  2.514685E-01  2.490469E-01  2.472307E-01  2.460199E-01
  2.454145E-01  2.454145E-01  2.460199E-01  2.472307E-01  2.490469E-01  2.514685E-01
  2.544955E-01  2.581279E-01  2.623657E-01  2.672089E-01  2.726575E-01  2.787116E-01
  2.853710E-01  2.926358E-01  3.005060E-01  3.089816E-01  3.180626E-01  3.277490E-01
  3.380409E-01  3.489381E-01  3.604407E-01  3.725487E-01  3.852622E-01  3.985810E-01
  4.125052E-01  4.270348E-01  4.361158E-01  4.215862E-01  4.076620E-01  3.943432E-01
  3.816297E-01  3.695217E-01  3.580191E-01  3.471219E-01  3.368301E-01  3.271436E-01
  3.180626E-01  3.095870E-01  3.017168E-01  2.944520E-01  2.877926E-01  2.817386E-01
  2.762899E-01  2.714467E-01  2.672089E-01  2.635765E-01  2.605495E-01  2.581279E-01
  2.563117E-01  2.551009E-01  2.544955E-01  2.544955E-01  2.551009E-01  2.563117E-01
  2.581279E-01  2.605495E-01  2.635765E-01  2.672089E-01  2.714467E-01  2.762899E-01
  2.817386E-01  2.877926E-01  2.944520E-01  3.017168E-01  3.095870E-01  3.180626E-01
  3.271436E-01  3.368301E-01  3.471219E-01  3.580191E-01  3.695217E-01  3.816297E-01
  3.943432E-01  4.076620E-01  4.215862E-01  4.361158E-01  4.458023E-01  4.312726E-01
  4.173484E-01  4.040296E-01  3.913162E-01  3.792081E-01  3.677055E-01  3.568083E-01
  3.465165E-01  3.368301E-01  3.277490E-01  3.192734E-01  3.114032E-01  3.041384E-01
  2.974790E-01  2.914250E-01  2.859764E-01  2.811332E-01  2.768953E-01  2.732629E-01
  2.702359E-01  2.678143E-01  2.659981E-01  2.647873E-01  2.641819E-01  2.641819E-01
  2.647873E-01  2.659981E-01  2.678143E-01  2.702359E-01  2.732629E-01  2.768953E-01
  2.811332E-01  2.859764E-01  2.914250E-01  2.974790E-01  3.041384E-01  3.114032E-01
  3.192734E-01  3.277490E-01  3.368301E-01  3.465165E-01  3.568083E-01  3.677055E-01